file 19725300 1435607598                                        
version 2
run General-0-20130724-11:34:33-31358
attr configname General
attr datetime 20130724-11:34:33
attr experiment General
attr inifile switchTest.ini
attr iterationvars ""
attr iterationvars2 $repetition=0
attr measurement ""
attr network SwitchTest
attr processid 31358
attr repetition 0
attr replication #0
attr resultdir results
attr runnumber 0
attr seedset 0
vector 24  SwitchTest.ied1.queue.pauseQueue  queueLength:vector  ETV
attr interpolationmode sample-hold
attr title "queue length, vector"
24	1527259 10 0 0 0 0 1 0 0 0 0
vector 28  SwitchTest.ied1.queue.dataQueue  queueLength:vector  ETV
attr interpolationmode sample-hold
attr title "queue length, vector"
28	1769085 223697 0 947733 0 60.26 12069 0 1 6034 6034
vector 57  SwitchTest.ied3.queue.pauseQueue  queueLength:vector  ETV
attr interpolationmode sample-hold
attr title "queue length, vector"
57	1993895 10 0 0 0 0 1 0 0 0 0
vector 61  SwitchTest.ied3.queue.dataQueue  queueLength:vector  ETV
attr interpolationmode sample-hold
attr title "queue length, vector"
61	1994158 245 0 10008 0 3.000044159996 13 0 1 6 6
vector 90  SwitchTest.ied2.queue.pauseQueue  queueLength:vector  ETV
attr interpolationmode sample-hold
attr title "queue length, vector"
90	2975713 10 0 0 0 0 1 0 0 0 0
vector 94  SwitchTest.ied2.queue.dataQueue  queueLength:vector  ETV
attr interpolationmode sample-hold
attr title "queue length, vector"
94	3283157 295554 0 947620 0 60.25004672 11867 0 2 5935 5937
vector 123  SwitchTest.ied4.queue.pauseQueue  queueLength:vector  ETV
attr interpolationmode sample-hold
attr title "queue length, vector"
123	5150757 11 0 0 0 0 1 0 0 0 0
vector 127  SwitchTest.ied4.queue.dataQueue  queueLength:vector  ETV
attr interpolationmode sample-hold
attr title "queue length, vector"
127	5404597 235711 0 947734 0 60.26 12067 0 1 6033 6033
vector 15  SwitchTest.ied1.iec61850trafgen  sentPk:vector(packetBytes)  ETV
attr interpolationmode none
attr source sentPk
attr title "packets sent, vector(packetBytes)"
15	1158131 129762 5 947721 0 60.26 6027 1000 1000 6027000 6027000000
vector 114  SwitchTest.ied4.iec61850trafgen  sentPk:vector(packetBytes)  ETV
attr interpolationmode none
attr source sentPk
attr title "packets sent, vector(packetBytes)"
114	4769874 135789 6 947722 0 60.26 6027 1000 1000 6027000 6027000000
vector 177  SwitchTest.s2.eth[0]  rxPkFromHL:vector(packetBytes)  ETV
attr interpolationmode none
attr source rxPkFromHL
attr title "packet bytes from higher layer, vector(packetBytes)"
177	8261942 353736 7 947651 0 60.25008208 11693 64 1018 6649868 6047138840
vector 188  SwitchTest.s2.eth[1]  rxPkFromHL:vector(packetBytes)  ETV
attr interpolationmode none
attr source rxPkFromHL
attr title "packet bytes from higher layer, vector(packetBytes)"
188	9149755 188352 8 947696 0 60.250247199999 5746 64 1018 5830348 5934073144
vector 199  SwitchTest.s2.eth[2]  rxPkFromHL:vector(packetBytes)  ETV
attr interpolationmode none
attr source rxPkFromHL
attr title "packet bytes from higher layer, vector(packetBytes)"
199	9880502 165886 9 947604 0 60.25003504 5946 64 138 819068 112936664
vector 210  SwitchTest.s3.eth[0]  rxPkFromHL:vector(packetBytes)  ETV
attr interpolationmode none
attr source rxPkFromHL
attr title "packet bytes from higher layer, vector(packetBytes)"
210	11131670 331100 10 947749 0 60.26001168 11694 64 1018 6649618 6047032948
vector 221  SwitchTest.s3.eth[1]  rxPkFromHL:vector(packetBytes)  ETV
attr interpolationmode none
attr source rxPkFromHL
attr title "packet bytes from higher layer, vector(packetBytes)"
221	11463339 230 11 23360 0 3.002627999792 9 64 1018 1530 1069092
vector 232  SwitchTest.s3.eth[2]  rxPkFromHL:vector(packetBytes)  ETV
attr interpolationmode none
attr source rxPkFromHL
attr title "packet bytes from higher layer, vector(packetBytes)"
232	11997562 188330 12 947697 0 60.250247199999 5745 64 1018 5830284 5934069048
vector 243  SwitchTest.s3.eth[3]  rxPkFromHL:vector(packetBytes)  ETV
attr interpolationmode none
attr source rxPkFromHL
attr title "packet bytes from higher layer, vector(packetBytes)"
243	12705931 188904 13 947659 0 60.250082719999 5956 64 1018 821438 114259724
vector 254  SwitchTest.s1.eth[0]  rxPkFromHL:vector(packetBytes)  ETV
attr interpolationmode none
attr source rxPkFromHL
attr title "packet bytes from higher layer, vector(packetBytes)"
254	13957283 331338 14 947681 0 60.25016416 11693 64 1018 6649480 6047013904
vector 265  SwitchTest.s1.eth[1]  rxPkFromHL:vector(packetBytes)  ETV
attr interpolationmode none
attr source rxPkFromHL
attr title "packet bytes from higher layer, vector(packetBytes)"
265	15328293 354024 15 947679 0 60.25016416 11694 64 1018 6649932 6047142936
vector 276  SwitchTest.s1.eth[2]  rxPkFromHL:vector(packetBytes)  ETV
attr interpolationmode none
attr source rxPkFromHL
attr title "packet bytes from higher layer, vector(packetBytes)"
276	15682500 165 16 23791 0 3.002709279793 7 64 64 448 28672
vector 11  SwitchTest.ied1.encap  encapPk:vector(packetBytes)  ETV
attr interpolationmode none
attr source encapPk
attr title "packets encapsulated, vector(packetBytes)"
11	663893 129918 27 947727 0 60.26 6034 28 1000 6027436 6027064272
vector 110  SwitchTest.ied4.encap  encapPk:vector(packetBytes)  ETV
attr interpolationmode none
attr source encapPk
attr title "packets encapsulated, vector(packetBytes)"
110	4258200 135923 28 947728 0 60.26 6033 28 1000 6027408 6027063488
vector 25  SwitchTest.ied1.queue.dataQueue  rcvdPk:vector(packetBytes)  ETV
attr interpolationmode none
attr title "received packets, vector(packetBytes)"
25	1527269 129919 31 947733 0 60.26 6034 64 1018 6136128 6246015888
vector 27  SwitchTest.ied1.queue.dataQueue  queueingTime:vector  ETV
attr interpolationmode none
attr title "queueing time, vector"
27	1657188 111897 31 947733 0 60.26 6034 0 8.208e-005 0.000165119999 1.104767998656e-008
vector 124  SwitchTest.ied4.queue.dataQueue  rcvdPk:vector(packetBytes)  ETV
attr interpolationmode none
attr title "received packets, vector(packetBytes)"
124	5150768 135924 32 947734 0 60.26 6033 64 1018 6136064 6246011792
vector 126  SwitchTest.ied4.queue.dataQueue  queueingTime:vector  ETV
attr interpolationmode none
attr title "queueing time, vector"
126	5286692 117905 32 947734 0 60.26 6033 0 8.208e-005 0.000176639999 1.267338238656e-008
vector 5  SwitchTest.ied1.mac  rxPkFromHL:vector(packetBytes)  ETV
attr interpolationmode none
attr source rxPkFromHL
attr title "packet bytes from higher layer, vector(packetBytes)"
5	539981 123912 37 947741 0 60.26 6034 64 1018 6136128 6246015888
vector 104  SwitchTest.ied4.mac  rxPkFromHL:vector(packetBytes)  ETV
attr interpolationmode none
attr source rxPkFromHL
attr title "packet bytes from higher layer, vector(packetBytes)"
104	4122248 135952 38 947742 0 60.26 6033 64 1018 6136064 6246011792
vector 172  SwitchTest.s2.eth[0]  txPk:vector(packetBytes)  ETV
attr interpolationmode none
attr source txPk
attr title "packets transmitted, vector(packetBytes)"
172	7199154 354036 41 947672 0.00000576 60.25016416 11693 64 1018 6649868 6047138840
vector 183  SwitchTest.s2.eth[1]  txPk:vector(packetBytes)  ETV
attr interpolationmode none
attr source txPk
attr title "packets transmitted, vector(packetBytes)"
183	8615678 188375 42 947704 0.00000576 60.250329279999 5746 64 1018 5830348 5934073144
vector 194  SwitchTest.s2.eth[2]  txPk:vector(packetBytes)  ETV
attr interpolationmode none
attr source txPk
attr title "packets transmitted, vector(packetBytes)"
194	9338107 165939 43 947608 0.00000576 60.25004672 5946 64 138 819068 112936664
vector 205  SwitchTest.s3.eth[0]  txPk:vector(packetBytes)  ETV
attr interpolationmode none
attr source txPk
attr title "packets transmitted, vector(packetBytes)"
205	10046388 331354 44 947673 0.00000576 60.25016416 11693 64 1018 6649480 6047013904
vector 216  SwitchTest.s3.eth[1]  txPk:vector(packetBytes)  ETV
attr interpolationmode none
attr source txPk
attr title "packets transmitted, vector(packetBytes)"
216	11462770 251 45 23374 0.00000576 3.002633759792 9 64 1018 1530 1069092
vector 227  SwitchTest.s3.eth[2]  txPk:vector(packetBytes)  ETV
attr interpolationmode none
attr source txPk
attr title "packets transmitted, vector(packetBytes)"
227	11463569 188347 46 947705 0.00000576 60.250329279999 5745 64 1018 5830284 5934069048
vector 145  SwitchTest.host1.eth[0].mac  rxPkOk:vector(packetBytes)  ETV
attr interpolationmode none
attr source rxPkOk
attr title "packets received OK, vector(packetBytes)"
145	6371331 188894 47 947665 0.00000576 60.250094399999 5955 64 258 820420 113223400
vector 146  SwitchTest.host1.eth[0].mac  passedUpPk:vector(packetBytes)  ETV
attr interpolationmode none
attr source packetSentToUpper
attr title "packets passed to higher layer, vector(packetBytes)"
146	6560225 188894 47 947665 0.00000576 60.250094399999 5955 64 258 820420 113223400
vector 238  SwitchTest.s3.eth[3]  txPk:vector(packetBytes)  ETV
attr interpolationmode none
attr source txPk
attr title "packets transmitted, vector(packetBytes)"
238	12185892 188925 48 947666 0.00000576 60.250094399999 5956 64 1018 821438 114259724
vector 249  SwitchTest.s1.eth[0]  txPk:vector(packetBytes)  ETV
attr interpolationmode none
attr source txPk
attr title "packets transmitted, vector(packetBytes)"
249	12894835 354376 49 947688 0.00000576 60.250247199999 11693 64 1018 6649480 6047013904
vector 260  SwitchTest.s1.eth[1]  txPk:vector(packetBytes)  ETV
attr interpolationmode none
attr source txPk
attr title "packets transmitted, vector(packetBytes)"
260	14288621 376964 50 947689 0.00000576 60.250247199999 11694 64 1018 6649932 6047142936
vector 161  SwitchTest.router.eth[0].mac  rxPkOk:vector(packetBytes)  ETV
attr interpolationmode none
attr source rxPkOk
attr title "packets received OK, vector(packetBytes)"
161	7198675 183 51 23844 0.00000576 3.002715039793 7 64 64 448 28672
vector 162  SwitchTest.router.eth[0].mac  passedUpPk:vector(packetBytes)  ETV
attr interpolationmode none
attr source packetSentToUpper
attr title "packets passed to higher layer, vector(packetBytes)"
162	7198858 183 51 23844 0.00000576 3.002715039793 7 64 64 448 28672
vector 271  SwitchTest.s1.eth[2]  txPk:vector(packetBytes)  ETV
attr interpolationmode none
attr source txPk
attr title "packets transmitted, vector(packetBytes)"
271	15682317 183 52 23845 0.00000576 3.002715039793 7 64 64 448 28672
vector 250  SwitchTest.s1.eth[0]  rxPkOk:vector(packetBytes)  ETV
attr interpolationmode none
attr source rxPkOk
attr title "packets received OK, vector(packetBytes)"
250	13249211 354036 53 947674 0.00000576 60.25016416 11693 64 1018 6649868 6047138840
vector 251  SwitchTest.s1.eth[0]  passedUpPk:vector(packetBytes)  ETV
attr interpolationmode none
attr source packetSentToUpper
attr title "packets passed to higher layer, vector(packetBytes)"
251	13603247 354036 53 947674 0.00000576 60.25016416 11693 64 1018 6649868 6047138840
vector 1  SwitchTest.ied1.mac  rxPkOk:vector(packetBytes)  ETV
attr interpolationmode none
attr source rxPkOk
attr title "packets received OK, vector(packetBytes)"
1	186215 176883 54 947706 0.00000576 60.250329279999 5746 64 1018 5830348 5934073144
vector 2  SwitchTest.ied1.mac  passedUpPk:vector(packetBytes)  ETV
attr interpolationmode none
attr source packetSentToUpper
attr title "packets passed to higher layer, vector(packetBytes)"
2	363098 176883 54 947706 0.00000576 60.250329279999 5746 64 1018 5830348 5934073144
vector 67  SwitchTest.ied2.mac  rxPkOk:vector(packetBytes)  ETV
attr interpolationmode none
attr source rxPkOk
attr title "packets received OK, vector(packetBytes)"
67	2176750 159993 55 947609 0.00000576 60.25004672 5946 64 138 819068 112936664
vector 68  SwitchTest.ied2.mac  passedUpPk:vector(packetBytes)  ETV
attr interpolationmode none
attr source packetSentToUpper
attr title "packets passed to higher layer, vector(packetBytes)"
68	2336743 159993 55 947609 0.00000576 60.25004672 5946 64 138 819068 112936664
vector 261  SwitchTest.s1.eth[1]  rxPkOk:vector(packetBytes)  ETV
attr interpolationmode none
attr source rxPkOk
attr title "packets received OK, vector(packetBytes)"
261	14665585 331354 56 947675 0.00000576 60.25016416 11693 64 1018 6649480 6047013904
vector 262  SwitchTest.s1.eth[1]  passedUpPk:vector(packetBytes)  ETV
attr interpolationmode none
attr source packetSentToUpper
attr title "packets passed to higher layer, vector(packetBytes)"
262	14996939 331354 56 947675 0.00000576 60.25016416 11693 64 1018 6649480 6047013904
vector 34  SwitchTest.ied3.mac  rxPkOk:vector(packetBytes)  ETV
attr interpolationmode none
attr source rxPkOk
attr title "packets received OK, vector(packetBytes)"
34	1992987 212 57 23376 0.00000576 3.002633759792 8 64 64 512 32768
vector 35  SwitchTest.ied3.mac  passedUpPk:vector(packetBytes)  ETV
attr interpolationmode none
attr source packetSentToUpper
attr title "packets passed to higher layer, vector(packetBytes)"
35	1993199 212 57 23376 0.00000576 3.002633759792 8 64 64 512 32768
vector 100  SwitchTest.ied4.mac  rxPkOk:vector(packetBytes)  ETV
attr interpolationmode none
attr source rxPkOk
attr title "packets received OK, vector(packetBytes)"
100	3745554 188347 58 947707 0.00000576 60.250329279999 5745 64 1018 5830284 5934069048
vector 101  SwitchTest.ied4.mac  passedUpPk:vector(packetBytes)  ETV
attr interpolationmode none
attr source packetSentToUpper
attr title "packets passed to higher layer, vector(packetBytes)"
101	3933901 188347 58 947707 0.00000576 60.250329279999 5745 64 1018 5830284 5934069048
vector 173  SwitchTest.s2.eth[0]  rxPkOk:vector(packetBytes)  ETV
attr interpolationmode none
attr source rxPkOk
attr title "packets received OK, vector(packetBytes)"
173	7553190 354376 59 947690 0.00000576 60.250247199999 11693 64 1018 6649480 6047013904
vector 174  SwitchTest.s2.eth[0]  passedUpPk:vector(packetBytes)  ETV
attr interpolationmode none
attr source packetSentToUpper
attr title "packets passed to higher layer, vector(packetBytes)"
174	7907566 354376 59 947690 0.00000576 60.250247199999 11693 64 1018 6649480 6047013904
vector 206  SwitchTest.s3.eth[0]  rxPkOk:vector(packetBytes)  ETV
attr interpolationmode none
attr source rxPkOk
attr title "packets received OK, vector(packetBytes)"
206	10377742 376964 60 947691 0.00000576 60.250247199999 11694 64 1018 6649932 6047142936
vector 207  SwitchTest.s3.eth[0]  passedUpPk:vector(packetBytes)  ETV
attr interpolationmode none
attr source packetSentToUpper
attr title "packets passed to higher layer, vector(packetBytes)"
207	10754706 376964 60 947691 0.00000576 60.250247199999 11694 64 1018 6649932 6047142936
vector 0  SwitchTest.ied1.mac  txPk:vector(packetBytes)  ETV
attr interpolationmode none
attr source txPk
attr title "packets transmitted, vector(packetBytes)"
0	25430 160785 87 947643 0.00008208 60.25008208 6033 64 1018 6135110 6244979564
vector 99  SwitchTest.ied4.mac  txPk:vector(packetBytes)  ETV
attr interpolationmode none
attr source txPk
attr title "packets transmitted, vector(packetBytes)"
99	3578763 166791 88 947644 0.00008208 60.25008208 6032 64 1018 6135046 6244975468
vector 184  SwitchTest.s2.eth[1]  rxPkOk:vector(packetBytes)  ETV
attr interpolationmode none
attr source rxPkOk
attr title "packets received OK, vector(packetBytes)"
184	8804053 172851 89 947645 0.00008208 60.25008208 6033 64 1018 6135110 6244979564
vector 185  SwitchTest.s2.eth[1]  passedUpPk:vector(packetBytes)  ETV
attr interpolationmode none
attr source packetSentToUpper
attr title "packets passed to higher layer, vector(packetBytes)"
185	8976904 172851 89 947645 0.00008208 60.25008208 6033 64 1018 6135110 6244979564
vector 228  SwitchTest.s3.eth[2]  rxPkOk:vector(packetBytes)  ETV
attr interpolationmode none
attr source rxPkOk
attr title "packets received OK, vector(packetBytes)"
228	11651916 172823 90 947646 0.00008208 60.25008208 6032 64 1018 6135046 6244975468
vector 229  SwitchTest.s3.eth[2]  passedUpPk:vector(packetBytes)  ETV
attr interpolationmode none
attr source packetSentToUpper
attr title "packets passed to higher layer, vector(packetBytes)"
229	11824739 172823 90 947646 0.00008208 60.25008208 6032 64 1018 6135046 6244975468
vector 138  SwitchTest.host1.pingApp[0]  pingTxSeq:vector  ETV
attr interpolationmode none
attr title "ping tx seq, vector"
138	5880076 132728 2869 947720 1 60.26 5927 0 5926 17561701 69386280651
vector 20  SwitchTest.ied1.mms  numActiveSessions:vector  ETV
attr interpolationmode sample-hold
attr source sum(connect)
attr title "number of active sessions, vector"
20	1527246 13 2870 2870 1 1 1 1 1 1 1
vector 53  SwitchTest.ied3.mms  numActiveSessions:vector  ETV
attr interpolationmode sample-hold
attr source sum(connect)
attr title "number of active sessions, vector"
53	1993882 13 2871 2871 1 1 1 1 1 1 1
vector 86  SwitchTest.ied2.mms  numActiveSessions:vector  ETV
attr interpolationmode sample-hold
attr source sum(connect)
attr title "number of active sessions, vector"
86	2975700 13 2872 2872 1 1 1 1 1 1 1
vector 119  SwitchTest.ied4.mms  numActiveSessions:vector  ETV
attr interpolationmode sample-hold
attr source sum(connect)
attr title "number of active sessions, vector"
119	5150743 14 2873 2873 1 1 1 1 1 1 1
vector 324  SwitchTest.ied1.tcp  tcpRcvQueueBytes  ETV
324	19720645 70 2887 24445 1 3.002895999791 3 0 0 0 0
vector 311  SwitchTest.ied1.tcp  "advertised window"  ETV
311	19720198 116 2887 24445 1 3.002895999791 4 7504 757571 2280217 1721797770139
vector 310  SwitchTest.ied1.tcp  "receive window"  ETV
310	19720119 79 2887 24445 1 3.002895999791 3 7504 7504 22512 168930048
vector 313  SwitchTest.ied1.tcp  "sent ack"  ETV
313	19720347 80 2887 24445 1 3.002895999791 3 0 750067 1500134 1125201008978
vector 348  SwitchTest.ied3.tcp  tcpRcvQueueBytes  ETV
348	19721481 68 2888 9975 1 3.000037439997 3 0 0 0 0
vector 335  SwitchTest.ied3.tcp  "advertised window"  ETV
335	19721043 113 2888 9975 1 3.000037439997 4 7504 757511 2280037 1721525055379
vector 334  SwitchTest.ied3.tcp  "receive window"  ETV
334	19720966 77 2888 9975 1 3.000037439997 3 7504 7504 22512 168930048
vector 337  SwitchTest.ied3.tcp  "sent ack"  ETV
337	19721188 78 2888 9975 1 3.000037439997 3 0 750007 1500014 1125021000098
vector 372  SwitchTest.ied2.tcp  tcpRcvQueueBytes  ETV
372	19722332 70 2889 24195 1 3.002796319794 3 0 0 0 0
vector 359  SwitchTest.ied2.tcp  "advertised window"  ETV
359	19721885 116 2889 24195 1 3.002796319794 4 7504 757516 2280052 1721547780784
vector 358  SwitchTest.ied2.tcp  "receive window"  ETV
358	19721806 79 2889 24195 1 3.002796319794 3 7504 7504 22512 168930048
vector 361  SwitchTest.ied2.tcp  "sent ack"  ETV
361	19722034 80 2889 24195 1 3.002796319794 3 0 750012 1500024 1125036000288
vector 396  SwitchTest.ied4.tcp  tcpRcvQueueBytes  ETV
396	19723180 70 2890 23336 1 3.002627039793 3 0 0 0 0
vector 383  SwitchTest.ied4.tcp  "advertised window"  ETV
383	19722733 116 2890 23336 1 3.002627039793 4 7504 757549 2280151 1721697772219
vector 382  SwitchTest.ied4.tcp  "receive window"  ETV
382	19722654 79 2890 23336 1 3.002627039793 3 7504 7504 22512 168930048
vector 385  SwitchTest.ied4.tcp  "sent ack"  ETV
385	19722882 80 2890 23336 1 3.002627039793 3 0 750045 1500090 1125135004050
vector 140  SwitchTest.host1.networkLayer.arp  sentReq:vector  ETV
attr title "ARP request sent, vector"
140	6205662 70 2909 10839 1 3.000265439998 4 1 1 4 4
vector 142  SwitchTest.host1.networkLayer.arp  initiatedResolution:vector  ETV
attr title "ARP initiated resolutions, vector"
142	6205732 42 2909 10839 1 3.000265439998 2 1 1 2 2
vector 29  SwitchTest.ied1.networkLayer.arp  sentReq:vector  ETV
attr title "ARP request sent, vector"
29	1992782 39 2910 9534 1 3 3 1 1 3 3
vector 31  SwitchTest.ied1.networkLayer.arp  initiatedResolution:vector  ETV
attr title "ARP initiated resolutions, vector"
31	1992821 13 2910 2910 1 1 1 1 1 1 1
vector 62  SwitchTest.ied3.networkLayer.arp  sentReq:vector  ETV
attr title "ARP request sent, vector"
62	1994403 39 2911 9535 1 3 3 1 1 3 3
vector 64  SwitchTest.ied3.networkLayer.arp  initiatedResolution:vector  ETV
attr title "ARP initiated resolutions, vector"
64	1994442 13 2911 2911 1 1 1 1 1 1 1
vector 95  SwitchTest.ied2.networkLayer.arp  sentReq:vector  ETV
attr title "ARP request sent, vector"
95	3578711 39 2912 9536 1 3 3 1 1 3 3
vector 97  SwitchTest.ied2.networkLayer.arp  initiatedResolution:vector  ETV
attr title "ARP initiated resolutions, vector"
97	3578750 13 2912 2912 1 1 1 1 1 1 1
vector 128  SwitchTest.ied4.networkLayer.arp  sentReq:vector  ETV
attr title "ARP request sent, vector"
128	5640308 42 2913 9537 1 3 3 1 1 3 3
vector 130  SwitchTest.ied4.networkLayer.arp  initiatedResolution:vector  ETV
attr title "ARP initiated resolutions, vector"
130	5640350 14 2913 2913 1 1 1 1 1 1 1
vector 153  SwitchTest.host1.eth[0].encap  encapPk:vector(packetBytes)  ETV
attr interpolationmode none
attr source encapPk
attr title "packets encapsulated, vector(packetBytes)"
153	6879660 130510 2916 947732 1 60.26 5941 28 120 711744 85367648
vector 149  SwitchTest.host1.eth[0].mac  rxPkFromHL:vector(packetBytes)  ETV
attr interpolationmode none
attr source rxPkFromHL
attr title "packet bytes from higher layer, vector(packetBytes)"
149	6749119 130510 2923 947735 1 60.26 5941 64 138 818822 112931132
vector 44  SwitchTest.ied3.encap  encapPk:vector(packetBytes)  ETV
attr interpolationmode none
attr source encapPk
attr title "packets encapsulated, vector(packetBytes)"
44	1993566 124 2925 9983 1 3.000037439997 6 28 240 408 63488
vector 77  SwitchTest.ied2.encap  encapPk:vector(packetBytes)  ETV
attr interpolationmode none
attr source encapPk
attr title "packets encapsulated, vector(packetBytes)"
77	2656368 159632 2926 947618 1 60.25004672 5933 28 240 711556 85398672
vector 58  SwitchTest.ied3.queue.dataQueue  rcvdPk:vector(packetBytes)  ETV
attr interpolationmode none
attr title "received packets, vector(packetBytes)"
58	1993905 124 2938 9987 1 3.000037439997 6 64 258 578 87044
vector 60  SwitchTest.ied3.queue.dataQueue  queueingTime:vector  ETV
attr interpolationmode none
attr title "queueing time, vector"
60	1994029 129 2938 10008 1 3.000044159996 6 0 6.719999e-006 6.719999e-006 4.5158386560001e-011
vector 91  SwitchTest.ied2.queue.dataQueue  rcvdPk:vector(packetBytes)  ETV
attr interpolationmode none
attr title "received packets, vector(packetBytes)"
91	2975723 159632 2939 947620 1 60.25004672 5933 64 258 818430 112945884
vector 93  SwitchTest.ied2.queue.dataQueue  queueingTime:vector  ETV
attr interpolationmode none
attr title "queueing time, vector"
93	3135355 147802 2939 947620 1 60.25004672 5933 0 1.2639999e-005 2.5279998e-005 2.3997436128e-010
vector 38  SwitchTest.ied3.mac  rxPkFromHL:vector(packetBytes)  ETV
attr interpolationmode none
attr source rxPkFromHL
attr title "packet bytes from higher layer, vector(packetBytes)"
38	1993411 125 2949 10016 1 3.000044159996 6 64 258 578 87044
vector 71  SwitchTest.ied2.mac  rxPkFromHL:vector(packetBytes)  ETV
attr interpolationmode none
attr source rxPkFromHL
attr title "packet bytes from higher layer, vector(packetBytes)"
71	2496736 159632 2950 947623 1 60.25004672 5933 64 258 818430 112945884
vector 144  SwitchTest.host1.eth[0].mac  txPk:vector(packetBytes)  ETV
attr interpolationmode none
attr source txPk
attr title "packets transmitted, vector(packetBytes)"
144	6205774 165557 2963 947745 1.00000576 60.26001168 5941 64 138 818822 112931132
vector 239  SwitchTest.s3.eth[3]  rxPkOk:vector(packetBytes)  ETV
attr interpolationmode none
attr source rxPkOk
attr title "packets received OK, vector(packetBytes)"
239	12374817 165557 2964 947746 1.00000576 60.26001168 5941 64 138 818822 112931132
vector 240  SwitchTest.s3.eth[3]  passedUpPk:vector(packetBytes)  ETV
attr interpolationmode none
attr source packetSentToUpper
attr title "packets passed to higher layer, vector(packetBytes)"
240	12540374 165557 2964 947746 1.00000576 60.26001168 5941 64 138 818822 112931132
vector 33  SwitchTest.ied3.mac  txPk:vector(packetBytes)  ETV
attr interpolationmode none
attr source txPk
attr title "packets transmitted, vector(packetBytes)"
33	1992834 153 2965 10454 1.00000576 3.000066399995 6 64 258 578 87044
vector 66  SwitchTest.ied2.mac  txPk:vector(packetBytes)  ETV
attr interpolationmode none
attr source txPk
attr title "packets transmitted, vector(packetBytes)"
66	1994455 182295 2966 947627 1.00000576 60.250059359999 5933 64 258 818430 112945884
vector 217  SwitchTest.s3.eth[1]  rxPkOk:vector(packetBytes)  ETV
attr interpolationmode none
attr source rxPkOk
attr title "packets received OK, vector(packetBytes)"
217	11463021 159 2967 10455 1.00000576 3.000066399995 6 64 258 578 87044
vector 218  SwitchTest.s3.eth[1]  passedUpPk:vector(packetBytes)  ETV
attr interpolationmode none
attr source packetSentToUpper
attr title "packets passed to higher layer, vector(packetBytes)"
218	11463180 159 2967 10455 1.00000576 3.000066399995 6 64 258 578 87044
vector 195  SwitchTest.s2.eth[2]  rxPkOk:vector(packetBytes)  ETV
attr interpolationmode none
attr source rxPkOk
attr title "packets received OK, vector(packetBytes)"
195	9504046 188228 2968 947628 1.00000576 60.250059359999 5933 64 258 818430 112945884
vector 196  SwitchTest.s2.eth[2]  passedUpPk:vector(packetBytes)  ETV
attr interpolationmode none
attr source packetSentToUpper
attr title "packets passed to higher layer, vector(packetBytes)"
196	9692274 188228 2968 947628 1.00000576 60.250059359999 5933 64 258 818430 112945884
vector 283  SwitchTest.s3.relay  "buffer level"  ETV
283	17037773 1355279 9610 947748 3.00000576 60.26001168 46666 0 1018 13296802 12094141076
vector 282  SwitchTest.s2.relay  "buffer level"  ETV
282	15682665 1355108 9613 947694 3.00000576 60.250247199999 46644 0 1018 13295380 12093906984
vector 154  SwitchTest.host1.eth[0].encap  decapPk:vector(packetBytes)  ETV
attr interpolationmode none
attr source decapPk
attr title "packets decapsulated, vector(packetBytes)"
154	7010170 188505 9675 947667 3.000012479999 60.250094399999 5942 28 240 712528 85582080
vector 284  SwitchTest.s1.relay  "buffer level"  ETV
284	18393052 1326391 9676 947680 3.000012479999 60.25016416 46640 0 2036 24951224 35825702008
vector 12  SwitchTest.ied1.encap  decapPk:vector(packetBytes)  ETV
attr interpolationmode none
attr source decapPk
attr title "packets decapsulated, vector(packetBytes)"
12	793811 182256 9683 947710 3.000012479999 60.250329279999 5733 28 1000 5726224 5726007456
vector 45  SwitchTest.ied3.encap  decapPk:vector(packetBytes)  ETV
attr interpolationmode none
attr source decapPk
attr title "packets decapsulated, vector(packetBytes)"
45	1993690 164 9684 23384 3.000012479999 3.002633759792 6 28 44 196 6672
vector 78  SwitchTest.ied2.encap  decapPk:vector(packetBytes)  ETV
attr interpolationmode none
attr source decapPk
attr title "packets decapsulated, vector(packetBytes)"
78	2816000 159671 9685 947611 3.000012479999 60.25004672 5933 28 120 711344 85341856
vector 111  SwitchTest.ied4.encap  decapPk:vector(packetBytes)  ETV
attr interpolationmode none
attr source decapPk
attr title "packets decapsulated, vector(packetBytes)"
111	4394123 187961 9686 947711 3.000012479999 60.250329279999 5732 28 1000 5726196 5726006672
vector 170  SwitchTest.router.eth[0].encap  decapPk:vector(packetBytes)  ETV
attr interpolationmode none
attr source decapPk
attr title "packets decapsulated, vector(packetBytes)"
170	7199041 113 9736 23846 3.000018239999 3.002715039793 4 28 28 112 3136
vector 290  SwitchTest.host1.tcp  "rcvd seq"  ETV
290	19719727 98 9862 10489 3.000025919997 3.000087679995 3 250000 250001 750002 187501000002
vector 291  SwitchTest.host1.tcp  "rcvd ack"  ETV
291	19719825 93 9862 10489 3.000025919997 3.000087679995 3 0 750007 1500014 1125021000098
vector 287  SwitchTest.host1.tcp  "advertised window"  ETV
287	19719565 97 9862 10489 3.000025919997 3.000087679995 3 257505 257705 772715 199029517075
vector 285  SwitchTest.host1.tcp  "send window"  ETV
285	19719443 61 9862 10040 3.000025919997 3.000054719997 2 7504 7504 15008 112620032
vector 300  SwitchTest.host1.tcp  tcpRcvQueueBytes  ETV
300	19719974 83 9862 10489 3.000025919997 3.000087679995 3 0 0 0 0
vector 286  SwitchTest.host1.tcp  "receive window"  ETV
286	19719504 61 9862 10489 3.000025919997 3.000087679995 2 7504 7504 15008 112620032
vector 289  SwitchTest.host1.tcp  "sent ack"  ETV
289	19719662 65 9862 10489 3.000025919997 3.000087679995 2 250001 250201 500202 125101040402
vector 338  SwitchTest.ied3.tcp  "rcvd seq"  ETV
338	19721266 65 9971 23262 3.000037439997 3.002620319794 2 750006 750007 1500013 1125019500085
vector 339  SwitchTest.ied3.tcp  "rcvd ack"  ETV
339	19721331 65 9971 23262 3.000037439997 3.002620319794 2 250001 250201 500202 125101040402
vector 333  SwitchTest.ied3.tcp  "send window"  ETV
333	19720905 61 9971 23262 3.000037439997 3.002620319794 2 7504 7504 15008 112620032
vector 51  SwitchTest.ied3.mms  sentPk:vector(packetBytes)  ETV
attr interpolationmode none
attr source sentPk
attr title "packets sent, vector(packetBytes)"
51	1993854 28 9973 9973 3.000037439997 3.000037439997 1 200 200 200 40000
vector 336  SwitchTest.ied3.tcp  "sent seq"  ETV
336	19721156 32 9975 9975 3.000037439997 3.000037439997 1 250001 250001 250001 62500500001
vector 340  SwitchTest.ied3.tcp  "unacked bytes"  ETV
340	19721396 57 9975 23262 3.000037439997 3.002620319794 2 0 200 200 40000
vector 410  SwitchTest.host1.tcp  "rcvd seq"  ETV
410	19723730 98 10025 24466 3.000047999998 3.002901919789 3 250000 250001 750002 187501000002