file 21535 1380502396                                           
version 2
run General-0-20130929-21:53:15-27192
attr configname General
attr datetime 20130929-21:53:15
attr experiment General
attr inifile omnetpp.ini
attr iterationvars ""
attr iterationvars2 $repetition=0
attr measurement ""
attr network SasTest
attr processid 27192
attr repetition 0
attr replication #0
attr resultdir results
attr runnumber 0
attr seedset 0

vector 29  SasTest.starZone.breaker[0].queue.p7  queueLength:vector  ETV
attr interpolationmode  sample-hold
attr title  "queue length, vector"
vector 33  SasTest.starZone.breaker[0].queue.p6  queueLength:vector  ETV
attr interpolationmode  sample-hold
attr title  "queue length, vector"
vector 37  SasTest.starZone.breaker[0].queue.p5  queueLength:vector  ETV
attr interpolationmode  sample-hold
attr title  "queue length, vector"
vector 41  SasTest.starZone.breaker[0].queue.p4  queueLength:vector  ETV
attr interpolationmode  sample-hold
attr title  "queue length, vector"
vector 45  SasTest.starZone.breaker[0].queue.p3  queueLength:vector  ETV
attr interpolationmode  sample-hold
attr title  "queue length, vector"
vector 49  SasTest.starZone.breaker[0].queue.p2  queueLength:vector  ETV
attr interpolationmode  sample-hold
attr title  "queue length, vector"
vector 53  SasTest.starZone.breaker[0].queue.p1  queueLength:vector  ETV
attr interpolationmode  sample-hold
attr title  "queue length, vector"
vector 57  SasTest.starZone.breaker[0].queue.p0  queueLength:vector  ETV
attr interpolationmode  sample-hold
attr title  "queue length, vector"
vector 91  SasTest.starZone.control[0].queue.p7  queueLength:vector  ETV
attr interpolationmode  sample-hold
attr title  "queue length, vector"
vector 95  SasTest.starZone.control[0].queue.p6  queueLength:vector  ETV
attr interpolationmode  sample-hold
attr title  "queue length, vector"
vector 99  SasTest.starZone.control[0].queue.p5  queueLength:vector  ETV
attr interpolationmode  sample-hold
attr title  "queue length, vector"
vector 103  SasTest.starZone.control[0].queue.p4  queueLength:vector  ETV
attr interpolationmode  sample-hold
attr title  "queue length, vector"
vector 107  SasTest.starZone.control[0].queue.p3  queueLength:vector  ETV
attr interpolationmode  sample-hold
attr title  "queue length, vector"
vector 111  SasTest.starZone.control[0].queue.p2  queueLength:vector  ETV
attr interpolationmode  sample-hold
attr title  "queue length, vector"
vector 115  SasTest.starZone.control[0].queue.p1  queueLength:vector  ETV
attr interpolationmode  sample-hold
attr title  "queue length, vector"
vector 119  SasTest.starZone.control[0].queue.p0  queueLength:vector  ETV
attr interpolationmode  sample-hold
attr title  "queue length, vector"
vector 153  SasTest.starZone.control[1].queue.p7  queueLength:vector  ETV
attr interpolationmode  sample-hold
attr title  "queue length, vector"
vector 157  SasTest.starZone.control[1].queue.p6  queueLength:vector  ETV
attr interpolationmode  sample-hold
attr title  "queue length, vector"
vector 161  SasTest.starZone.control[1].queue.p5  queueLength:vector  ETV
attr interpolationmode  sample-hold
attr title  "queue length, vector"
vector 165  SasTest.starZone.control[1].queue.p4  queueLength:vector  ETV
attr interpolationmode  sample-hold
attr title  "queue length, vector"
vector 169  SasTest.starZone.control[1].queue.p3  queueLength:vector  ETV
attr interpolationmode  sample-hold
attr title  "queue length, vector"
vector 173  SasTest.starZone.control[1].queue.p2  queueLength:vector  ETV
attr interpolationmode  sample-hold
attr title  "queue length, vector"
vector 177  SasTest.starZone.control[1].queue.p1  queueLength:vector  ETV
attr interpolationmode  sample-hold
attr title  "queue length, vector"
vector 181  SasTest.starZone.control[1].queue.p0  queueLength:vector  ETV
attr interpolationmode  sample-hold
attr title  "queue length, vector"
vector 215  SasTest.starZone.control[2].queue.p7  queueLength:vector  ETV
attr interpolationmode  sample-hold
attr title  "queue length, vector"
vector 219  SasTest.starZone.control[2].queue.p6  queueLength:vector  ETV
attr interpolationmode  sample-hold
attr title  "queue length, vector"
vector 223  SasTest.starZone.control[2].queue.p5  queueLength:vector  ETV
attr interpolationmode  sample-hold
attr title  "queue length, vector"
vector 227  SasTest.starZone.control[2].queue.p4  queueLength:vector  ETV
attr interpolationmode  sample-hold
attr title  "queue length, vector"
vector 231  SasTest.starZone.control[2].queue.p3  queueLength:vector  ETV
attr interpolationmode  sample-hold
attr title  "queue length, vector"
vector 235  SasTest.starZone.control[2].queue.p2  queueLength:vector  ETV
attr interpolationmode  sample-hold
attr title  "queue length, vector"
vector 239  SasTest.starZone.control[2].queue.p1  queueLength:vector  ETV
attr interpolationmode  sample-hold
attr title  "queue length, vector"
vector 243  SasTest.starZone.control[2].queue.p0  queueLength:vector  ETV
attr interpolationmode  sample-hold
attr title  "queue length, vector"
vector 277  SasTest.starZone.control[3].queue.p7  queueLength:vector  ETV
attr interpolationmode  sample-hold
attr title  "queue length, vector"
vector 281  SasTest.starZone.control[3].queue.p6  queueLength:vector  ETV
attr interpolationmode  sample-hold
attr title  "queue length, vector"
vector 285  SasTest.starZone.control[3].queue.p5  queueLength:vector  ETV
attr interpolationmode  sample-hold
attr title  "queue length, vector"
vector 289  SasTest.starZone.control[3].queue.p4  queueLength:vector  ETV
attr interpolationmode  sample-hold
attr title  "queue length, vector"
vector 293  SasTest.starZone.control[3].queue.p3  queueLength:vector  ETV
attr interpolationmode  sample-hold
attr title  "queue length, vector"
vector 297  SasTest.starZone.control[3].queue.p2  queueLength:vector  ETV
attr interpolationmode  sample-hold
attr title  "queue length, vector"
vector 301  SasTest.starZone.control[3].queue.p1  queueLength:vector  ETV
attr interpolationmode  sample-hold
attr title  "queue length, vector"
vector 305  SasTest.starZone.control[3].queue.p0  queueLength:vector  ETV
attr interpolationmode  sample-hold
attr title  "queue length, vector"
vector 322  SasTest.starZone.switch.eth1Q[0].queue.p7  queueLength:vector  ETV
attr interpolationmode  sample-hold
attr title  "queue length, vector"
vector 326  SasTest.starZone.switch.eth1Q[0].queue.p6  queueLength:vector  ETV
attr interpolationmode  sample-hold
attr title  "queue length, vector"
vector 330  SasTest.starZone.switch.eth1Q[0].queue.p5  queueLength:vector  ETV
attr interpolationmode  sample-hold
attr title  "queue length, vector"
vector 334  SasTest.starZone.switch.eth1Q[0].queue.p4  queueLength:vector  ETV
attr interpolationmode  sample-hold
attr title  "queue length, vector"
vector 338  SasTest.starZone.switch.eth1Q[0].queue.p3  queueLength:vector  ETV
attr interpolationmode  sample-hold
attr title  "queue length, vector"
vector 342  SasTest.starZone.switch.eth1Q[0].queue.p2  queueLength:vector  ETV
attr interpolationmode  sample-hold
attr title  "queue length, vector"
vector 346  SasTest.starZone.switch.eth1Q[0].queue.p1  queueLength:vector  ETV
attr interpolationmode  sample-hold
attr title  "queue length, vector"
vector 350  SasTest.starZone.switch.eth1Q[0].queue.p0  queueLength:vector  ETV
attr interpolationmode  sample-hold
attr title  "queue length, vector"
vector 363  SasTest.starZone.switch.eth1Q[1].queue.p7  queueLength:vector  ETV
attr interpolationmode  sample-hold
attr title  "queue length, vector"
vector 367  SasTest.starZone.switch.eth1Q[1].queue.p6  queueLength:vector  ETV
attr interpolationmode  sample-hold
attr title  "queue length, vector"
vector 371  SasTest.starZone.switch.eth1Q[1].queue.p5  queueLength:vector  ETV
attr interpolationmode  sample-hold
attr title  "queue length, vector"
vector 375  SasTest.starZone.switch.eth1Q[1].queue.p4  queueLength:vector  ETV
attr interpolationmode  sample-hold
attr title  "queue length, vector"
vector 379  SasTest.starZone.switch.eth1Q[1].queue.p3  queueLength:vector  ETV
attr interpolationmode  sample-hold
attr title  "queue length, vector"
vector 383  SasTest.starZone.switch.eth1Q[1].queue.p2  queueLength:vector  ETV
attr interpolationmode  sample-hold
attr title  "queue length, vector"
vector 387  SasTest.starZone.switch.eth1Q[1].queue.p1  queueLength:vector  ETV
attr interpolationmode  sample-hold
attr title  "queue length, vector"
vector 391  SasTest.starZone.switch.eth1Q[1].queue.p0  queueLength:vector  ETV
attr interpolationmode  sample-hold
attr title  "queue length, vector"
vector 404  SasTest.starZone.switch.eth1Q[2].queue.p7  queueLength:vector  ETV
attr interpolationmode  sample-hold
attr title  "queue length, vector"
vector 408  SasTest.starZone.switch.eth1Q[2].queue.p6  queueLength:vector  ETV
attr interpolationmode  sample-hold
attr title  "queue length, vector"
vector 412  SasTest.starZone.switch.eth1Q[2].queue.p5  queueLength:vector  ETV
attr interpolationmode  sample-hold
attr title  "queue length, vector"
vector 416  SasTest.starZone.switch.eth1Q[2].queue.p4  queueLength:vector  ETV
attr interpolationmode  sample-hold
attr title  "queue length, vector"
vector 420  SasTest.starZone.switch.eth1Q[2].queue.p3  queueLength:vector  ETV
attr interpolationmode  sample-hold
attr title  "queue length, vector"
vector 424  SasTest.starZone.switch.eth1Q[2].queue.p2  queueLength:vector  ETV
attr interpolationmode  sample-hold
attr title  "queue length, vector"
vector 428  SasTest.starZone.switch.eth1Q[2].queue.p1  queueLength:vector  ETV
attr interpolationmode  sample-hold
attr title  "queue length, vector"
vector 432  SasTest.starZone.switch.eth1Q[2].queue.p0  queueLength:vector  ETV
attr interpolationmode  sample-hold
attr title  "queue length, vector"
vector 445  SasTest.starZone.switch.eth1Q[3].queue.p7  queueLength:vector  ETV
attr interpolationmode  sample-hold
attr title  "queue length, vector"
vector 449  SasTest.starZone.switch.eth1Q[3].queue.p6  queueLength:vector  ETV
attr interpolationmode  sample-hold
attr title  "queue length, vector"
vector 453  SasTest.starZone.switch.eth1Q[3].queue.p5  queueLength:vector  ETV
attr interpolationmode  sample-hold
attr title  "queue length, vector"
vector 457  SasTest.starZone.switch.eth1Q[3].queue.p4  queueLength:vector  ETV
attr interpolationmode  sample-hold
attr title  "queue length, vector"
vector 461  SasTest.starZone.switch.eth1Q[3].queue.p3  queueLength:vector  ETV
attr interpolationmode  sample-hold
attr title  "queue length, vector"
vector 465  SasTest.starZone.switch.eth1Q[3].queue.p2  queueLength:vector  ETV
attr interpolationmode  sample-hold
attr title  "queue length, vector"
vector 469  SasTest.starZone.switch.eth1Q[3].queue.p1  queueLength:vector  ETV
attr interpolationmode  sample-hold
attr title  "queue length, vector"
vector 473  SasTest.starZone.switch.eth1Q[3].queue.p0  queueLength:vector  ETV
attr interpolationmode  sample-hold
attr title  "queue length, vector"
vector 486  SasTest.starZone.switch.eth1Q[4].queue.p7  queueLength:vector  ETV
attr interpolationmode  sample-hold
attr title  "queue length, vector"
vector 490  SasTest.starZone.switch.eth1Q[4].queue.p6  queueLength:vector  ETV
attr interpolationmode  sample-hold
attr title  "queue length, vector"
vector 494  SasTest.starZone.switch.eth1Q[4].queue.p5  queueLength:vector  ETV
attr interpolationmode  sample-hold
attr title  "queue length, vector"
vector 498  SasTest.starZone.switch.eth1Q[4].queue.p4  queueLength:vector  ETV
attr interpolationmode  sample-hold
attr title  "queue length, vector"
vector 502  SasTest.starZone.switch.eth1Q[4].queue.p3  queueLength:vector  ETV
attr interpolationmode  sample-hold
attr title  "queue length, vector"
vector 506  SasTest.starZone.switch.eth1Q[4].queue.p2  queueLength:vector  ETV
attr interpolationmode  sample-hold
attr title  "queue length, vector"
vector 510  SasTest.starZone.switch.eth1Q[4].queue.p1  queueLength:vector  ETV
attr interpolationmode  sample-hold
attr title  "queue length, vector"
vector 514  SasTest.starZone.switch.eth1Q[4].queue.p0  queueLength:vector  ETV
attr interpolationmode  sample-hold
attr title  "queue length, vector"
vector 527  SasTest.starZone.switch.eth1Q[5].queue.p7  queueLength:vector  ETV
attr interpolationmode  sample-hold
attr title  "queue length, vector"
vector 531  SasTest.starZone.switch.eth1Q[5].queue.p6  queueLength:vector  ETV
attr interpolationmode  sample-hold
attr title  "queue length, vector"
vector 535  SasTest.starZone.switch.eth1Q[5].queue.p5  queueLength:vector  ETV
attr interpolationmode  sample-hold
attr title  "queue length, vector"
vector 539  SasTest.starZone.switch.eth1Q[5].queue.p4  queueLength:vector  ETV
attr interpolationmode  sample-hold
attr title  "queue length, vector"
vector 543  SasTest.starZone.switch.eth1Q[5].queue.p3  queueLength:vector  ETV
attr interpolationmode  sample-hold
attr title  "queue length, vector"
vector 547  SasTest.starZone.switch.eth1Q[5].queue.p2  queueLength:vector  ETV
attr interpolationmode  sample-hold
attr title  "queue length, vector"
vector 551  SasTest.starZone.switch.eth1Q[5].queue.p1  queueLength:vector  ETV
attr interpolationmode  sample-hold
attr title  "queue length, vector"
vector 555  SasTest.starZone.switch.eth1Q[5].queue.p0  queueLength:vector  ETV
attr interpolationmode  sample-hold
attr title  "queue length, vector"
vector 568  SasTest.starZone.switch.eth1Q[6].queue.p7  queueLength:vector  ETV
attr interpolationmode  sample-hold
attr title  "queue length, vector"
vector 572  SasTest.starZone.switch.eth1Q[6].queue.p6  queueLength:vector  ETV
attr interpolationmode  sample-hold
attr title  "queue length, vector"
vector 576  SasTest.starZone.switch.eth1Q[6].queue.p5  queueLength:vector  ETV
attr interpolationmode  sample-hold
attr title  "queue length, vector"
vector 580  SasTest.starZone.switch.eth1Q[6].queue.p4  queueLength:vector  ETV
attr interpolationmode  sample-hold
attr title  "queue length, vector"
vector 584  SasTest.starZone.switch.eth1Q[6].queue.p3  queueLength:vector  ETV
attr interpolationmode  sample-hold
attr title  "queue length, vector"
vector 588  SasTest.starZone.switch.eth1Q[6].queue.p2  queueLength:vector  ETV
attr interpolationmode  sample-hold
attr title  "queue length, vector"
vector 592  SasTest.starZone.switch.eth1Q[6].queue.p1  queueLength:vector  ETV
attr interpolationmode  sample-hold
attr title  "queue length, vector"
vector 596  SasTest.starZone.switch.eth1Q[6].queue.p0  queueLength:vector  ETV
attr interpolationmode  sample-hold
attr title  "queue length, vector"
vector 609  SasTest.starZone.switch.eth1Q[7].queue.p7  queueLength:vector  ETV
attr interpolationmode  sample-hold
attr title  "queue length, vector"
vector 613  SasTest.starZone.switch.eth1Q[7].queue.p6  queueLength:vector  ETV
attr interpolationmode  sample-hold
attr title  "queue length, vector"
vector 617  SasTest.starZone.switch.eth1Q[7].queue.p5  queueLength:vector  ETV
attr interpolationmode  sample-hold
attr title  "queue length, vector"
vector 621  SasTest.starZone.switch.eth1Q[7].queue.p4  queueLength:vector  ETV
attr interpolationmode  sample-hold
attr title  "queue length, vector"
vector 625  SasTest.starZone.switch.eth1Q[7].queue.p3  queueLength:vector  ETV
attr interpolationmode  sample-hold
attr title  "queue length, vector"
vector 629  SasTest.starZone.switch.eth1Q[7].queue.p2  queueLength:vector  ETV
attr interpolationmode  sample-hold
attr title  "queue length, vector"
vector 633  SasTest.starZone.switch.eth1Q[7].queue.p1  queueLength:vector  ETV
attr interpolationmode  sample-hold
attr title  "queue length, vector"
vector 637  SasTest.starZone.switch.eth1Q[7].queue.p0  queueLength:vector  ETV
attr interpolationmode  sample-hold
attr title  "queue length, vector"
vector 659  SasTest.starZone.mu[0].queue.p7  queueLength:vector  ETV
attr interpolationmode  sample-hold
attr title  "queue length, vector"
vector 663  SasTest.starZone.mu[0].queue.p6  queueLength:vector  ETV
attr interpolationmode  sample-hold
attr title  "queue length, vector"
vector 667  SasTest.starZone.mu[0].queue.p5  queueLength:vector  ETV
attr interpolationmode  sample-hold
attr title  "queue length, vector"
vector 671  SasTest.starZone.mu[0].queue.p4  queueLength:vector  ETV
attr interpolationmode  sample-hold
attr title  "queue length, vector"
vector 675  SasTest.starZone.mu[0].queue.p3  queueLength:vector  ETV
attr interpolationmode  sample-hold
attr title  "queue length, vector"
vector 679  SasTest.starZone.mu[0].queue.p2  queueLength:vector  ETV
attr interpolationmode  sample-hold
attr title  "queue length, vector"
vector 683  SasTest.starZone.mu[0].queue.p1  queueLength:vector  ETV
attr interpolationmode  sample-hold
attr title  "queue length, vector"
vector 687  SasTest.starZone.mu[0].queue.p0  queueLength:vector  ETV
attr interpolationmode  sample-hold
attr title  "queue length, vector"
vector 704  SasTest.switch.eth1Q[0].queue.p7  queueLength:vector  ETV
attr interpolationmode  sample-hold
attr title  "queue length, vector"
vector 708  SasTest.switch.eth1Q[0].queue.p6  queueLength:vector  ETV
attr interpolationmode  sample-hold
attr title  "queue length, vector"
vector 712  SasTest.switch.eth1Q[0].queue.p5  queueLength:vector  ETV
attr interpolationmode  sample-hold
attr title  "queue length, vector"
vector 716  SasTest.switch.eth1Q[0].queue.p4  queueLength:vector  ETV
attr interpolationmode  sample-hold
attr title  "queue length, vector"
vector 720  SasTest.switch.eth1Q[0].queue.p3  queueLength:vector  ETV
attr interpolationmode  sample-hold
attr title  "queue length, vector"
vector 724  SasTest.switch.eth1Q[0].queue.p2  queueLength:vector  ETV
attr interpolationmode  sample-hold
attr title  "queue length, vector"
vector 728  SasTest.switch.eth1Q[0].queue.p1  queueLength:vector  ETV
attr interpolationmode  sample-hold
attr title  "queue length, vector"
vector 732  SasTest.switch.eth1Q[0].queue.p0  queueLength:vector  ETV
attr interpolationmode  sample-hold
attr title  "queue length, vector"
vector 745  SasTest.switch.eth1Q[1].queue.p7  queueLength:vector  ETV
attr interpolationmode  sample-hold
attr title  "queue length, vector"
vector 749  SasTest.switch.eth1Q[1].queue.p6  queueLength:vector  ETV
attr interpolationmode  sample-hold
attr title  "queue length, vector"
vector 753  SasTest.switch.eth1Q[1].queue.p5  queueLength:vector  ETV
attr interpolationmode  sample-hold
attr title  "queue length, vector"
vector 757  SasTest.switch.eth1Q[1].queue.p4  queueLength:vector  ETV
attr interpolationmode  sample-hold
attr title  "queue length, vector"
vector 761  SasTest.switch.eth1Q[1].queue.p3  queueLength:vector  ETV
attr interpolationmode  sample-hold
attr title  "queue length, vector"
vector 765  SasTest.switch.eth1Q[1].queue.p2  queueLength:vector  ETV
attr interpolationmode  sample-hold
attr title  "queue length, vector"
vector 769  SasTest.switch.eth1Q[1].queue.p1  queueLength:vector  ETV
attr interpolationmode  sample-hold
attr title  "queue length, vector"
vector 773  SasTest.switch.eth1Q[1].queue.p0  queueLength:vector  ETV
attr interpolationmode  sample-hold
attr title  "queue length, vector"
vector 801  SasTest.server.queue.p7  queueLength:vector  ETV
attr interpolationmode  sample-hold
attr title  "queue length, vector"
vector 805  SasTest.server.queue.p6  queueLength:vector  ETV
attr interpolationmode  sample-hold
attr title  "queue length, vector"
vector 809  SasTest.server.queue.p5  queueLength:vector  ETV
attr interpolationmode  sample-hold
attr title  "queue length, vector"
vector 813  SasTest.server.queue.p4  queueLength:vector  ETV
attr interpolationmode  sample-hold
attr title  "queue length, vector"
vector 817  SasTest.server.queue.p3  queueLength:vector  ETV
attr interpolationmode  sample-hold
attr title  "queue length, vector"
vector 821  SasTest.server.queue.p2  queueLength:vector  ETV
attr interpolationmode  sample-hold
attr title  "queue length, vector"
vector 825  SasTest.server.queue.p1  queueLength:vector  ETV
attr interpolationmode  sample-hold
attr title  "queue length, vector"
vector 829  SasTest.server.queue.p0  queueLength:vector  ETV
attr interpolationmode  sample-hold
attr title  "queue length, vector"
29	20186 9 0 0 0 0 1 0 0 0 0
33	20195 9 0 0 0 0 1 0 0 0 0
37	20204 9 0 0 0 0 1 0 0 0 0
41	20213 9 0 0 0 0 1 0 0 0 0
45	20222 9 0 0 0 0 1 0 0 0 0
49	20231 9 0 0 0 0 1 0 0 0 0
53	20240 9 0 0 0 0 1 0 0 0 0
57	20249 9 0 0 0 0 1 0 0 0 0
91	20258 9 0 0 0 0 1 0 0 0 0
95	20267 9 0 0 0 0 1 0 0 0 0
99	20276 9 0 0 0 0 1 0 0 0 0
103	20285 10 0 0 0 0 1 0 0 0 0
107	20295 10 0 0 0 0 1 0 0 0 0
111	20305 10 0 0 0 0 1 0 0 0 0
115	20315 10 0 0 0 0 1 0 0 0 0
119	20325 10 0 0 0 0 1 0 0 0 0
153	20335 10 0 0 0 0 1 0 0 0 0
157	20345 10 0 0 0 0 1 0 0 0 0
161	20355 10 0 0 0 0 1 0 0 0 0
165	20365 10 0 0 0 0 1 0 0 0 0
169	20375 10 0 0 0 0 1 0 0 0 0
173	20385 10 0 0 0 0 1 0 0 0 0
177	20395 10 0 0 0 0 1 0 0 0 0
181	20405 10 0 0 0 0 1 0 0 0 0
215	20415 10 0 0 0 0 1 0 0 0 0
219	20425 10 0 0 0 0 1 0 0 0 0
223	20435 10 0 0 0 0 1 0 0 0 0
227	20445 10 0 0 0 0 1 0 0 0 0
231	20455 10 0 0 0 0 1 0 0 0 0
235	20465 10 0 0 0 0 1 0 0 0 0
239	20475 10 0 0 0 0 1 0 0 0 0
243	20485 10 0 0 0 0 1 0 0 0 0
277	20495 10 0 0 0 0 1 0 0 0 0
281	20505 10 0 0 0 0 1 0 0 0 0
285	20515 10 0 0 0 0 1 0 0 0 0
289	20525 10 0 0 0 0 1 0 0 0 0
293	20535 10 0 0 0 0 1 0 0 0 0
297	20545 10 0 0 0 0 1 0 0 0 0
301	20555 10 0 0 0 0 1 0 0 0 0
305	20565 10 0 0 0 0 1 0 0 0 0
322	20575 10 0 0 0 0 1 0 0 0 0
326	20585 10 0 0 0 0 1 0 0 0 0
330	20595 10 0 0 0 0 1 0 0 0 0
334	20605 10 0 0 0 0 1 0 0 0 0
338	20615 10 0 0 0 0 1 0 0 0 0
342	20625 10 0 0 0 0 1 0 0 0 0
346	20635 10 0 0 0 0 1 0 0 0 0
350	20645 10 0 0 0 0 1 0 0 0 0
363	20655 10 0 0 0 0 1 0 0 0 0
367	20665 10 0 0 0 0 1 0 0 0 0
371	20675 10 0 0 0 0 1 0 0 0 0
375	20685 10 0 0 0 0 1 0 0 0 0
379	20695 10 0 0 0 0 1 0 0 0 0
383	20705 10 0 0 0 0 1 0 0 0 0
387	20715 10 0 0 0 0 1 0 0 0 0
391	20725 10 0 0 0 0 1 0 0 0 0
404	20735 10 0 0 0 0 1 0 0 0 0
408	20745 10 0 0 0 0 1 0 0 0 0
412	20755 10 0 0 0 0 1 0 0 0 0
416	20765 10 0 0 0 0 1 0 0 0 0
420	20775 10 0 0 0 0 1 0 0 0 0
424	20785 10 0 0 0 0 1 0 0 0 0
428	20795 10 0 0 0 0 1 0 0 0 0
432	20805 10 0 0 0 0 1 0 0 0 0
445	20815 10 0 0 0 0 1 0 0 0 0
449	20825 10 0 0 0 0 1 0 0 0 0
453	20835 10 0 0 0 0 1 0 0 0 0
457	20845 10 0 0 0 0 1 0 0 0 0
461	20855 10 0 0 0 0 1 0 0 0 0
465	20865 10 0 0 0 0 1 0 0 0 0
469	20875 10 0 0 0 0 1 0 0 0 0
473	20885 10 0 0 0 0 1 0 0 0 0
486	20895 10 0 0 0 0 1 0 0 0 0
490	20905 10 0 0 0 0 1 0 0 0 0
494	20915 10 0 0 0 0 1 0 0 0 0
498	20925 10 0 0 0 0 1 0 0 0 0
502	20935 10 0 0 0 0 1 0 0 0 0
506	20945 10 0 0 0 0 1 0 0 0 0
510	20955 10 0 0 0 0 1 0 0 0 0
514	20965 10 0 0 0 0 1 0 0 0 0
527	20975 10 0 0 0 0 1 0 0 0 0
531	20985 10 0 0 0 0 1 0 0 0 0
535	20995 10 0 0 0 0 1 0 0 0 0
539	21005 10 0 0 0 0 1 0 0 0 0
543	21015 10 0 0 0 0 1 0 0 0 0
547	21025 10 0 0 0 0 1 0 0 0 0
551	21035 10 0 0 0 0 1 0 0 0 0
555	21045 10 0 0 0 0 1 0 0 0 0
568	21055 10 0 0 0 0 1 0 0 0 0
572	21065 10 0 0 0 0 1 0 0 0 0
576	21075 10 0 0 0 0 1 0 0 0 0
580	21085 10 0 0 0 0 1 0 0 0 0
584	21095 10 0 0 0 0 1 0 0 0 0
588	21105 10 0 0 0 0 1 0 0 0 0
592	21115 10 0 0 0 0 1 0 0 0 0
596	21125 10 0 0 0 0 1 0 0 0 0
609	21135 10 0 0 0 0 1 0 0 0 0
613	21145 10 0 0 0 0 1 0 0 0 0
617	21155 10 0 0 0 0 1 0 0 0 0
621	21165 10 0 0 0 0 1 0 0 0 0
625	21175 10 0 0 0 0 1 0 0 0 0
629	21185 10 0 0 0 0 1 0 0 0 0
633	21195 10 0 0 0 0 1 0 0 0 0
637	21205 10 0 0 0 0 1 0 0 0 0
659	21215 10 0 0 0 0 1 0 0 0 0
663	21225 10 0 0 0 0 1 0 0 0 0
667	21235 10 0 0 0 0 1 0 0 0 0
671	21245 10 0 0 0 0 1 0 0 0 0
675	21255 10 0 0 0 0 1 0 0 0 0
679	21265 10 0 0 0 0 1 0 0 0 0
683	21275 10 0 0 0 0 1 0 0 0 0
687	21285 10 0 0 0 0 1 0 0 0 0
704	21295 10 0 0 0 0 1 0 0 0 0
708	21305 10 0 0 0 0 1 0 0 0 0
712	21315 10 0 0 0 0 1 0 0 0 0
716	21325 10 0 0 0 0 1 0 0 0 0
720	21335 10 0 0 0 0 1 0 0 0 0
724	21345 10 0 0 0 0 1 0 0 0 0
728	21355 10 0 0 0 0 1 0 0 0 0
732	21365 10 0 0 0 0 1 0 0 0 0
745	21375 10 0 0 0 0 1 0 0 0 0
749	21385 10 0 0 0 0 1 0 0 0 0
753	21395 10 0 0 0 0 1 0 0 0 0
757	21405 10 0 0 0 0 1 0 0 0 0
761	21415 10 0 0 0 0 1 0 0 0 0
765	21425 10 0 0 0 0 1 0 0 0 0
769	21435 10 0 0 0 0 1 0 0 0 0
773	21445 10 0 0 0 0 1 0 0 0 0
801	21455 10 0 0 0 0 1 0 0 0 0
805	21465 10 0 0 0 0 1 0 0 0 0
809	21475 10 0 0 0 0 1 0 0 0 0
813	21485 10 0 0 0 0 1 0 0 0 0
817	21495 10 0 0 0 0 1 0 0 0 0
821	21505 10 0 0 0 0 1 0 0 0 0
825	21515 10 0 0 0 0 1 0 0 0 0
829	21525 10 0 0 0 0 1 0 0 0 0
