file 22096 1435607599                                           
version 2
run General-0-20130929-21:53:15-27192
attr configname General
attr datetime 20130929-21:53:15
attr experiment General
attr inifile omnetpp.ini
attr iterationvars ""
attr iterationvars2 $repetition=0
attr measurement ""
attr network SasTest
attr processid 27192
attr repetition 0
attr replication #0
attr resultdir results
attr runnumber 0
attr seedset 0
vector 29  SasTest.starZone.breaker[0].queue.p7  queueLength:vector  ETV
attr interpolationmode sample-hold
attr title "queue length, vector"
29	20611 10 0 0 0 0 1 0 0 0 0
vector 33  SasTest.starZone.breaker[0].queue.p6  queueLength:vector  ETV
attr interpolationmode sample-hold
attr title "queue length, vector"
33	20621 10 0 0 0 0 1 0 0 0 0
vector 37  SasTest.starZone.breaker[0].queue.p5  queueLength:vector  ETV
attr interpolationmode sample-hold
attr title "queue length, vector"
37	20631 10 0 0 0 0 1 0 0 0 0
vector 41  SasTest.starZone.breaker[0].queue.p4  queueLength:vector  ETV
attr interpolationmode sample-hold
attr title "queue length, vector"
41	20641 10 0 0 0 0 1 0 0 0 0
vector 45  SasTest.starZone.breaker[0].queue.p3  queueLength:vector  ETV
attr interpolationmode sample-hold
attr title "queue length, vector"
45	20651 10 0 0 0 0 1 0 0 0 0
vector 49  SasTest.starZone.breaker[0].queue.p2  queueLength:vector  ETV
attr interpolationmode sample-hold
attr title "queue length, vector"
49	20661 10 0 0 0 0 1 0 0 0 0
vector 53  SasTest.starZone.breaker[0].queue.p1  queueLength:vector  ETV
attr interpolationmode sample-hold
attr title "queue length, vector"
53	20671 10 0 0 0 0 1 0 0 0 0
vector 57  SasTest.starZone.breaker[0].queue.p0  queueLength:vector  ETV
attr interpolationmode sample-hold
attr title "queue length, vector"
57	20681 10 0 0 0 0 1 0 0 0 0
vector 91  SasTest.starZone.control[0].queue.p7  queueLength:vector  ETV
attr interpolationmode sample-hold
attr title "queue length, vector"
91	20691 10 0 0 0 0 1 0 0 0 0
vector 95  SasTest.starZone.control[0].queue.p6  queueLength:vector  ETV
attr interpolationmode sample-hold
attr title "queue length, vector"
95	20701 10 0 0 0 0 1 0 0 0 0
vector 99  SasTest.starZone.control[0].queue.p5  queueLength:vector  ETV
attr interpolationmode sample-hold
attr title "queue length, vector"
99	20711 10 0 0 0 0 1 0 0 0 0
vector 103  SasTest.starZone.control[0].queue.p4  queueLength:vector  ETV
attr interpolationmode sample-hold
attr title "queue length, vector"
103	20721 11 0 0 0 0 1 0 0 0 0
vector 107  SasTest.starZone.control[0].queue.p3  queueLength:vector  ETV
attr interpolationmode sample-hold
attr title "queue length, vector"
107	20732 11 0 0 0 0 1 0 0 0 0
vector 111  SasTest.starZone.control[0].queue.p2  queueLength:vector  ETV
attr interpolationmode sample-hold
attr title "queue length, vector"
111	20743 11 0 0 0 0 1 0 0 0 0
vector 115  SasTest.starZone.control[0].queue.p1  queueLength:vector  ETV
attr interpolationmode sample-hold
attr title "queue length, vector"
115	20754 11 0 0 0 0 1 0 0 0 0
vector 119  SasTest.starZone.control[0].queue.p0  queueLength:vector  ETV
attr interpolationmode sample-hold
attr title "queue length, vector"
119	20765 11 0 0 0 0 1 0 0 0 0
vector 153  SasTest.starZone.control[1].queue.p7  queueLength:vector  ETV
attr interpolationmode sample-hold
attr title "queue length, vector"
153	20776 11 0 0 0 0 1 0 0 0 0
vector 157  SasTest.starZone.control[1].queue.p6  queueLength:vector  ETV
attr interpolationmode sample-hold
attr title "queue length, vector"
157	20787 11 0 0 0 0 1 0 0 0 0
vector 161  SasTest.starZone.control[1].queue.p5  queueLength:vector  ETV
attr interpolationmode sample-hold
attr title "queue length, vector"
161	20798 11 0 0 0 0 1 0 0 0 0
vector 165  SasTest.starZone.control[1].queue.p4  queueLength:vector  ETV
attr interpolationmode sample-hold
attr title "queue length, vector"
165	20809 11 0 0 0 0 1 0 0 0 0
vector 169  SasTest.starZone.control[1].queue.p3  queueLength:vector  ETV
attr interpolationmode sample-hold
attr title "queue length, vector"
169	20820 11 0 0 0 0 1 0 0 0 0
vector 173  SasTest.starZone.control[1].queue.p2  queueLength:vector  ETV
attr interpolationmode sample-hold
attr title "queue length, vector"
173	20831 11 0 0 0 0 1 0 0 0 0
vector 177  SasTest.starZone.control[1].queue.p1  queueLength:vector  ETV
attr interpolationmode sample-hold
attr title "queue length, vector"
177	20842 11 0 0 0 0 1 0 0 0 0
vector 181  SasTest.starZone.control[1].queue.p0  queueLength:vector  ETV
attr interpolationmode sample-hold
attr title "queue length, vector"
181	20853 11 0 0 0 0 1 0 0 0 0
vector 215  SasTest.starZone.control[2].queue.p7  queueLength:vector  ETV
attr interpolationmode sample-hold
attr title "queue length, vector"
215	20864 11 0 0 0 0 1 0 0 0 0
vector 219  SasTest.starZone.control[2].queue.p6  queueLength:vector  ETV
attr interpolationmode sample-hold
attr title "queue length, vector"
219	20875 11 0 0 0 0 1 0 0 0 0
vector 223  SasTest.starZone.control[2].queue.p5  queueLength:vector  ETV
attr interpolationmode sample-hold
attr title "queue length, vector"
223	20886 11 0 0 0 0 1 0 0 0 0
vector 227  SasTest.starZone.control[2].queue.p4  queueLength:vector  ETV
attr interpolationmode sample-hold
attr title "queue length, vector"
227	20897 11 0 0 0 0 1 0 0 0 0
vector 231  SasTest.starZone.control[2].queue.p3  queueLength:vector  ETV
attr interpolationmode sample-hold
attr title "queue length, vector"
231	20908 11 0 0 0 0 1 0 0 0 0
vector 235  SasTest.starZone.control[2].queue.p2  queueLength:vector  ETV
attr interpolationmode sample-hold
attr title "queue length, vector"
235	20919 11 0 0 0 0 1 0 0 0 0
vector 239  SasTest.starZone.control[2].queue.p1  queueLength:vector  ETV
attr interpolationmode sample-hold
attr title "queue length, vector"
239	20930 11 0 0 0 0 1 0 0 0 0
vector 243  SasTest.starZone.control[2].queue.p0  queueLength:vector  ETV
attr interpolationmode sample-hold
attr title "queue length, vector"
243	20941 11 0 0 0 0 1 0 0 0 0
vector 277  SasTest.starZone.control[3].queue.p7  queueLength:vector  ETV
attr interpolationmode sample-hold
attr title "queue length, vector"
277	20952 11 0 0 0 0 1 0 0 0 0
vector 281  SasTest.starZone.control[3].queue.p6  queueLength:vector  ETV
attr interpolationmode sample-hold
attr title "queue length, vector"
281	20963 11 0 0 0 0 1 0 0 0 0
vector 285  SasTest.starZone.control[3].queue.p5  queueLength:vector  ETV
attr interpolationmode sample-hold
attr title "queue length, vector"
285	20974 11 0 0 0 0 1 0 0 0 0
vector 289  SasTest.starZone.control[3].queue.p4  queueLength:vector  ETV
attr interpolationmode sample-hold
attr title "queue length, vector"
289	20985 11 0 0 0 0 1 0 0 0 0
vector 293  SasTest.starZone.control[3].queue.p3  queueLength:vector  ETV
attr interpolationmode sample-hold
attr title "queue length, vector"
293	20996 11 0 0 0 0 1 0 0 0 0
vector 297  SasTest.starZone.control[3].queue.p2  queueLength:vector  ETV
attr interpolationmode sample-hold
attr title "queue length, vector"
297	21007 11 0 0 0 0 1 0 0 0 0
vector 301  SasTest.starZone.control[3].queue.p1  queueLength:vector  ETV
attr interpolationmode sample-hold
attr title "queue length, vector"
301	21018 11 0 0 0 0 1 0 0 0 0
vector 305  SasTest.starZone.control[3].queue.p0  queueLength:vector  ETV
attr interpolationmode sample-hold
attr title "queue length, vector"
305	21029 11 0 0 0 0 1 0 0 0 0
vector 322  SasTest.starZone.switch.eth1Q[0].queue.p7  queueLength:vector  ETV
attr interpolationmode sample-hold
attr title "queue length, vector"
322	21040 11 0 0 0 0 1 0 0 0 0
vector 326  SasTest.starZone.switch.eth1Q[0].queue.p6  queueLength:vector  ETV
attr interpolationmode sample-hold
attr title "queue length, vector"
326	21051 11 0 0 0 0 1 0 0 0 0
vector 330  SasTest.starZone.switch.eth1Q[0].queue.p5  queueLength:vector  ETV
attr interpolationmode sample-hold
attr title "queue length, vector"
330	21062 11 0 0 0 0 1 0 0 0 0
vector 334  SasTest.starZone.switch.eth1Q[0].queue.p4  queueLength:vector  ETV
attr interpolationmode sample-hold
attr title "queue length, vector"
334	21073 11 0 0 0 0 1 0 0 0 0
vector 338  SasTest.starZone.switch.eth1Q[0].queue.p3  queueLength:vector  ETV
attr interpolationmode sample-hold
attr title "queue length, vector"
338	21084 11 0 0 0 0 1 0 0 0 0
vector 342  SasTest.starZone.switch.eth1Q[0].queue.p2  queueLength:vector  ETV
attr interpolationmode sample-hold
attr title "queue length, vector"
342	21095 11 0 0 0 0 1 0 0 0 0
vector 346  SasTest.starZone.switch.eth1Q[0].queue.p1  queueLength:vector  ETV
attr interpolationmode sample-hold
attr title "queue length, vector"
346	21106 11 0 0 0 0 1 0 0 0 0
vector 350  SasTest.starZone.switch.eth1Q[0].queue.p0  queueLength:vector  ETV
attr interpolationmode sample-hold
attr title "queue length, vector"
350	21117 11 0 0 0 0 1 0 0 0 0
vector 363  SasTest.starZone.switch.eth1Q[1].queue.p7  queueLength:vector  ETV
attr interpolationmode sample-hold
attr title "queue length, vector"
363	21128 11 0 0 0 0 1 0 0 0 0
vector 367  SasTest.starZone.switch.eth1Q[1].queue.p6  queueLength:vector  ETV
attr interpolationmode sample-hold
attr title "queue length, vector"
367	21139 11 0 0 0 0 1 0 0 0 0
vector 371  SasTest.starZone.switch.eth1Q[1].queue.p5  queueLength:vector  ETV
attr interpolationmode sample-hold
attr title "queue length, vector"
371	21150 11 0 0 0 0 1 0 0 0 0
vector 375  SasTest.starZone.switch.eth1Q[1].queue.p4  queueLength:vector  ETV
attr interpolationmode sample-hold
attr title "queue length, vector"
375	21161 11 0 0 0 0 1 0 0 0 0
vector 379  SasTest.starZone.switch.eth1Q[1].queue.p3  queueLength:vector  ETV
attr interpolationmode sample-hold
attr title "queue length, vector"
379	21172 11 0 0 0 0 1 0 0 0 0
vector 383  SasTest.starZone.switch.eth1Q[1].queue.p2  queueLength:vector  ETV
attr interpolationmode sample-hold
attr title "queue length, vector"
383	21183 11 0 0 0 0 1 0 0 0 0
vector 387  SasTest.starZone.switch.eth1Q[1].queue.p1  queueLength:vector  ETV
attr interpolationmode sample-hold
attr title "queue length, vector"
387	21194 11 0 0 0 0 1 0 0 0 0
vector 391  SasTest.starZone.switch.eth1Q[1].queue.p0  queueLength:vector  ETV
attr interpolationmode sample-hold
attr title "queue length, vector"
391	21205 11 0 0 0 0 1 0 0 0 0
vector 404  SasTest.starZone.switch.eth1Q[2].queue.p7  queueLength:vector  ETV
attr interpolationmode sample-hold
attr title "queue length, vector"
404	21216 11 0 0 0 0 1 0 0 0 0
vector 408  SasTest.starZone.switch.eth1Q[2].queue.p6  queueLength:vector  ETV
attr interpolationmode sample-hold
attr title "queue length, vector"
408	21227 11 0 0 0 0 1 0 0 0 0
vector 412  SasTest.starZone.switch.eth1Q[2].queue.p5  queueLength:vector  ETV
attr interpolationmode sample-hold
attr title "queue length, vector"
412	21238 11 0 0 0 0 1 0 0 0 0
vector 416  SasTest.starZone.switch.eth1Q[2].queue.p4  queueLength:vector  ETV
attr interpolationmode sample-hold
attr title "queue length, vector"
416	21249 11 0 0 0 0 1 0 0 0 0
vector 420  SasTest.starZone.switch.eth1Q[2].queue.p3  queueLength:vector  ETV
attr interpolationmode sample-hold
attr title "queue length, vector"
420	21260 11 0 0 0 0 1 0 0 0 0
vector 424  SasTest.starZone.switch.eth1Q[2].queue.p2  queueLength:vector  ETV
attr interpolationmode sample-hold
attr title "queue length, vector"
424	21271 11 0 0 0 0 1 0 0 0 0
vector 428  SasTest.starZone.switch.eth1Q[2].queue.p1  queueLength:vector  ETV
attr interpolationmode sample-hold
attr title "queue length, vector"
428	21282 11 0 0 0 0 1 0 0 0 0
vector 432  SasTest.starZone.switch.eth1Q[2].queue.p0  queueLength:vector  ETV
attr interpolationmode sample-hold
attr title "queue length, vector"
432	21293 11 0 0 0 0 1 0 0 0 0
vector 445  SasTest.starZone.switch.eth1Q[3].queue.p7  queueLength:vector  ETV
attr interpolationmode sample-hold
attr title "queue length, vector"
445	21304 11 0 0 0 0 1 0 0 0 0
vector 449  SasTest.starZone.switch.eth1Q[3].queue.p6  queueLength:vector  ETV
attr interpolationmode sample-hold
attr title "queue length, vector"
449	21315 11 0 0 0 0 1 0 0 0 0
vector 453  SasTest.starZone.switch.eth1Q[3].queue.p5  queueLength:vector  ETV
attr interpolationmode sample-hold
attr title "queue length, vector"
453	21326 11 0 0 0 0 1 0 0 0 0
vector 457  SasTest.starZone.switch.eth1Q[3].queue.p4  queueLength:vector  ETV
attr interpolationmode sample-hold
attr title "queue length, vector"
457	21337 11 0 0 0 0 1 0 0 0 0
vector 461  SasTest.starZone.switch.eth1Q[3].queue.p3  queueLength:vector  ETV
attr interpolationmode sample-hold
attr title "queue length, vector"
461	21348 11 0 0 0 0 1 0 0 0 0
vector 465  SasTest.starZone.switch.eth1Q[3].queue.p2  queueLength:vector  ETV
attr interpolationmode sample-hold
attr title "queue length, vector"
465	21359 11 0 0 0 0 1 0 0 0 0
vector 469  SasTest.starZone.switch.eth1Q[3].queue.p1  queueLength:vector  ETV
attr interpolationmode sample-hold
attr title "queue length, vector"
469	21370 11 0 0 0 0 1 0 0 0 0
vector 473  SasTest.starZone.switch.eth1Q[3].queue.p0  queueLength:vector  ETV
attr interpolationmode sample-hold
attr title "queue length, vector"
473	21381 11 0 0 0 0 1 0 0 0 0
vector 486  SasTest.starZone.switch.eth1Q[4].queue.p7  queueLength:vector  ETV
attr interpolationmode sample-hold
attr title "queue length, vector"
486	21392 11 0 0 0 0 1 0 0 0 0
vector 490  SasTest.starZone.switch.eth1Q[4].queue.p6  queueLength:vector  ETV
attr interpolationmode sample-hold
attr title "queue length, vector"
490	21403 11 0 0 0 0 1 0 0 0 0
vector 494  SasTest.starZone.switch.eth1Q[4].queue.p5  queueLength:vector  ETV
attr interpolationmode sample-hold
attr title "queue length, vector"
494	21414 11 0 0 0 0 1 0 0 0 0
vector 498  SasTest.starZone.switch.eth1Q[4].queue.p4  queueLength:vector  ETV
attr interpolationmode sample-hold
attr title "queue length, vector"
498	21425 11 0 0 0 0 1 0 0 0 0
vector 502  SasTest.starZone.switch.eth1Q[4].queue.p3  queueLength:vector  ETV
attr interpolationmode sample-hold
attr title "queue length, vector"
502	21436 11 0 0 0 0 1 0 0 0 0
vector 506  SasTest.starZone.switch.eth1Q[4].queue.p2  queueLength:vector  ETV
attr interpolationmode sample-hold
attr title "queue length, vector"
506	21447 11 0 0 0 0 1 0 0 0 0
vector 510  SasTest.starZone.switch.eth1Q[4].queue.p1  queueLength:vector  ETV
attr interpolationmode sample-hold
attr title "queue length, vector"
510	21458 11 0 0 0 0 1 0 0 0 0
vector 514  SasTest.starZone.switch.eth1Q[4].queue.p0  queueLength:vector  ETV
attr interpolationmode sample-hold
attr title "queue length, vector"
514	21469 11 0 0 0 0 1 0 0 0 0
vector 527  SasTest.starZone.switch.eth1Q[5].queue.p7  queueLength:vector  ETV
attr interpolationmode sample-hold
attr title "queue length, vector"
527	21480 11 0 0 0 0 1 0 0 0 0
vector 531  SasTest.starZone.switch.eth1Q[5].queue.p6  queueLength:vector  ETV
attr interpolationmode sample-hold
attr title "queue length, vector"
531	21491 11 0 0 0 0 1 0 0 0 0
vector 535  SasTest.starZone.switch.eth1Q[5].queue.p5  queueLength:vector  ETV
attr interpolationmode sample-hold
attr title "queue length, vector"
535	21502 11 0 0 0 0 1 0 0 0 0
vector 539  SasTest.starZone.switch.eth1Q[5].queue.p4  queueLength:vector  ETV
attr interpolationmode sample-hold
attr title "queue length, vector"
539	21513 11 0 0 0 0 1 0 0 0 0
vector 543  SasTest.starZone.switch.eth1Q[5].queue.p3  queueLength:vector  ETV
attr interpolationmode sample-hold
attr title "queue length, vector"
543	21524 11 0 0 0 0 1 0 0 0 0
vector 547  SasTest.starZone.switch.eth1Q[5].queue.p2  queueLength:vector  ETV
attr interpolationmode sample-hold
attr title "queue length, vector"
547	21535 11 0 0 0 0 1 0 0 0 0
vector 551  SasTest.starZone.switch.eth1Q[5].queue.p1  queueLength:vector  ETV
attr interpolationmode sample-hold
attr title "queue length, vector"
551	21546 11 0 0 0 0 1 0 0 0 0
vector 555  SasTest.starZone.switch.eth1Q[5].queue.p0  queueLength:vector  ETV
attr interpolationmode sample-hold
attr title "queue length, vector"
555	21557 11 0 0 0 0 1 0 0 0 0
vector 568  SasTest.starZone.switch.eth1Q[6].queue.p7  queueLength:vector  ETV
attr interpolationmode sample-hold
attr title "queue length, vector"
568	21568 11 0 0 0 0 1 0 0 0 0
vector 572  SasTest.starZone.switch.eth1Q[6].queue.p6  queueLength:vector  ETV
attr interpolationmode sample-hold
attr title "queue length, vector"
572	21579 11 0 0 0 0 1 0 0 0 0
vector 576  SasTest.starZone.switch.eth1Q[6].queue.p5  queueLength:vector  ETV
attr interpolationmode sample-hold
attr title "queue length, vector"
576	21590 11 0 0 0 0 1 0 0 0 0
vector 580  SasTest.starZone.switch.eth1Q[6].queue.p4  queueLength:vector  ETV
attr interpolationmode sample-hold
attr title "queue length, vector"
580	21601 11 0 0 0 0 1 0 0 0 0
vector 584  SasTest.starZone.switch.eth1Q[6].queue.p3  queueLength:vector  ETV
attr interpolationmode sample-hold
attr title "queue length, vector"
584	21612 11 0 0 0 0 1 0 0 0 0
vector 588  SasTest.starZone.switch.eth1Q[6].queue.p2  queueLength:vector  ETV
attr interpolationmode sample-hold
attr title "queue length, vector"
588	21623 11 0 0 0 0 1 0 0 0 0
vector 592  SasTest.starZone.switch.eth1Q[6].queue.p1  queueLength:vector  ETV
attr interpolationmode sample-hold
attr title "queue length, vector"
592	21634 11 0 0 0 0 1 0 0 0 0
vector 596  SasTest.starZone.switch.eth1Q[6].queue.p0  queueLength:vector  ETV
attr interpolationmode sample-hold
attr title "queue length, vector"
596	21645 11 0 0 0 0 1 0 0 0 0
vector 609  SasTest.starZone.switch.eth1Q[7].queue.p7  queueLength:vector  ETV
attr interpolationmode sample-hold
attr title "queue length, vector"
609	21656 11 0 0 0 0 1 0 0 0 0
vector 613  SasTest.starZone.switch.eth1Q[7].queue.p6  queueLength:vector  ETV
attr interpolationmode sample-hold
attr title "queue length, vector"
613	21667 11 0 0 0 0 1 0 0 0 0
vector 617  SasTest.starZone.switch.eth1Q[7].queue.p5  queueLength:vector  ETV
attr interpolationmode sample-hold
attr title "queue length, vector"
617	21678 11 0 0 0 0 1 0 0 0 0
vector 621  SasTest.starZone.switch.eth1Q[7].queue.p4  queueLength:vector  ETV
attr interpolationmode sample-hold
attr title "queue length, vector"
621	21689 11 0 0 0 0 1 0 0 0 0
vector 625  SasTest.starZone.switch.eth1Q[7].queue.p3  queueLength:vector  ETV
attr interpolationmode sample-hold
attr title "queue length, vector"
625	21700 11 0 0 0 0 1 0 0 0 0
vector 629  SasTest.starZone.switch.eth1Q[7].queue.p2  queueLength:vector  ETV
attr interpolationmode sample-hold
attr title "queue length, vector"
629	21711 11 0 0 0 0 1 0 0 0 0
vector 633  SasTest.starZone.switch.eth1Q[7].queue.p1  queueLength:vector  ETV
attr interpolationmode sample-hold
attr title "queue length, vector"
633	21722 11 0 0 0 0 1 0 0 0 0
vector 637  SasTest.starZone.switch.eth1Q[7].queue.p0  queueLength:vector  ETV
attr interpolationmode sample-hold
attr title "queue length, vector"
637	21733 11 0 0 0 0 1 0 0 0 0
vector 659  SasTest.starZone.mu[0].queue.p7  queueLength:vector  ETV
attr interpolationmode sample-hold
attr title "queue length, vector"
659	21744 11 0 0 0 0 1 0 0 0 0
vector 663  SasTest.starZone.mu[0].queue.p6  queueLength:vector  ETV
attr interpolationmode sample-hold
attr title "queue length, vector"
663	21755 11 0 0 0 0 1 0 0 0 0
vector 667  SasTest.starZone.mu[0].queue.p5  queueLength:vector  ETV
attr interpolationmode sample-hold
attr title "queue length, vector"
667	21766 11 0 0 0 0 1 0 0 0 0
vector 671  SasTest.starZone.mu[0].queue.p4  queueLength:vector  ETV
attr interpolationmode sample-hold
attr title "queue length, vector"
671	21777 11 0 0 0 0 1 0 0 0 0
vector 675  SasTest.starZone.mu[0].queue.p3  queueLength:vector  ETV
attr interpolationmode sample-hold
attr title "queue length, vector"
675	21788 11 0 0 0 0 1 0 0 0 0
vector 679  SasTest.starZone.mu[0].queue.p2  queueLength:vector  ETV
attr interpolationmode sample-hold
attr title "queue length, vector"
679	21799 11 0 0 0 0 1 0 0 0 0
vector 683  SasTest.starZone.mu[0].queue.p1  queueLength:vector  ETV
attr interpolationmode sample-hold
attr title "queue length, vector"
683	21810 11 0 0 0 0 1 0 0 0 0
vector 687  SasTest.starZone.mu[0].queue.p0  queueLength:vector  ETV
attr interpolationmode sample-hold
attr title "queue length, vector"
687	21821 11 0 0 0 0 1 0 0 0 0
vector 704  SasTest.switch.eth1Q[0].queue.p7  queueLength:vector  ETV
attr interpolationmode sample-hold
attr title "queue length, vector"
704	21832 11 0 0 0 0 1 0 0 0 0
vector 708  SasTest.switch.eth1Q[0].queue.p6  queueLength:vector  ETV
attr interpolationmode sample-hold
attr title "queue length, vector"
708	21843 11 0 0 0 0 1 0 0 0 0
vector 712  SasTest.switch.eth1Q[0].queue.p5  queueLength:vector  ETV
attr interpolationmode sample-hold
attr title "queue length, vector"
712	21854 11 0 0 0 0 1 0 0 0 0
vector 716  SasTest.switch.eth1Q[0].queue.p4  queueLength:vector  ETV
attr interpolationmode sample-hold
attr title "queue length, vector"
716	21865 11 0 0 0 0 1 0 0 0 0
vector 720  SasTest.switch.eth1Q[0].queue.p3  queueLength:vector  ETV
attr interpolationmode sample-hold
attr title "queue length, vector"
720	21876 11 0 0 0 0 1 0 0 0 0
vector 724  SasTest.switch.eth1Q[0].queue.p2  queueLength:vector  ETV
attr interpolationmode sample-hold
attr title "queue length, vector"
724	21887 11 0 0 0 0 1 0 0 0 0
vector 728  SasTest.switch.eth1Q[0].queue.p1  queueLength:vector  ETV
attr interpolationmode sample-hold
attr title "queue length, vector"
728	21898 11 0 0 0 0 1 0 0 0 0
vector 732  SasTest.switch.eth1Q[0].queue.p0  queueLength:vector  ETV
attr interpolationmode sample-hold
attr title "queue length, vector"
732	21909 11 0 0 0 0 1 0 0 0 0
vector 745  SasTest.switch.eth1Q[1].queue.p7  queueLength:vector  ETV
attr interpolationmode sample-hold
attr title "queue length, vector"
745	21920 11 0 0 0 0 1 0 0 0 0
vector 749  SasTest.switch.eth1Q[1].queue.p6  queueLength:vector  ETV
attr interpolationmode sample-hold
attr title "queue length, vector"
749	21931 11 0 0 0 0 1 0 0 0 0
vector 753  SasTest.switch.eth1Q[1].queue.p5  queueLength:vector  ETV
attr interpolationmode sample-hold
attr title "queue length, vector"
753	21942 11 0 0 0 0 1 0 0 0 0
vector 757  SasTest.switch.eth1Q[1].queue.p4  queueLength:vector  ETV
attr interpolationmode sample-hold
attr title "queue length, vector"
757	21953 11 0 0 0 0 1 0 0 0 0
vector 761  SasTest.switch.eth1Q[1].queue.p3  queueLength:vector  ETV
attr interpolationmode sample-hold
attr title "queue length, vector"
761	21964 11 0 0 0 0 1 0 0 0 0
vector 765  SasTest.switch.eth1Q[1].queue.p2  queueLength:vector  ETV
attr interpolationmode sample-hold
attr title "queue length, vector"
765	21975 11 0 0 0 0 1 0 0 0 0
vector 769  SasTest.switch.eth1Q[1].queue.p1  queueLength:vector  ETV
attr interpolationmode sample-hold
attr title "queue length, vector"
769	21986 11 0 0 0 0 1 0 0 0 0
vector 773  SasTest.switch.eth1Q[1].queue.p0  queueLength:vector  ETV
attr interpolationmode sample-hold
attr title "queue length, vector"
773	21997 11 0 0 0 0 1 0 0 0 0
vector 801  SasTest.server.queue.p7  queueLength:vector  ETV
attr interpolationmode sample-hold
attr title "queue length, vector"
801	22008 11 0 0 0 0 1 0 0 0 0
vector 805  SasTest.server.queue.p6  queueLength:vector  ETV
attr interpolationmode sample-hold
attr title "queue length, vector"
805	22019 11 0 0 0 0 1 0 0 0 0
vector 809  SasTest.server.queue.p5  queueLength:vector  ETV
attr interpolationmode sample-hold
attr title "queue length, vector"
809	22030 11 0 0 0 0 1 0 0 0 0
vector 813  SasTest.server.queue.p4  queueLength:vector  ETV
attr interpolationmode sample-hold
attr title "queue length, vector"
813	22041 11 0 0 0 0 1 0 0 0 0
vector 817  SasTest.server.queue.p3  queueLength:vector  ETV
attr interpolationmode sample-hold
attr title "queue length, vector"
817	22052 11 0 0 0 0 1 0 0 0 0
vector 821  SasTest.server.queue.p2  queueLength:vector  ETV
attr interpolationmode sample-hold
attr title "queue length, vector"
821	22063 11 0 0 0 0 1 0 0 0 0
vector 825  SasTest.server.queue.p1  queueLength:vector  ETV
attr interpolationmode sample-hold
attr title "queue length, vector"
825	22074 11 0 0 0 0 1 0 0 0 0
vector 829  SasTest.server.queue.p0  queueLength:vector  ETV
attr interpolationmode sample-hold
attr title "queue length, vector"
829	22085 11 0 0 0 0 1 0 0 0 0
