file 25043 1435607597                                           
version 2
run General-0-20130912-12:20:06-28117
attr configname General
attr datetime 20130912-12:20:06
attr experiment General
attr inifile omnetpp.ini
attr iterationvars ""
attr iterationvars2 $repetition=0
attr measurement ""
attr network IedSwitchTest
attr processid 28117
attr repetition 0
attr replication #0
attr resultdir results
attr runnumber 0
attr seedset 0
vector 12  IedSwitchTest.s1.eth1Q[0].queue.p7  queueLength:vector  ETV
attr interpolationmode sample-hold
attr title "queue length, vector"
12	22494 10 0 0 0 0 1 0 0 0 0
vector 16  IedSwitchTest.s1.eth1Q[0].queue.p6  queueLength:vector  ETV
attr interpolationmode sample-hold
attr title "queue length, vector"
16	22504 10 0 0 0 0 1 0 0 0 0
vector 20  IedSwitchTest.s1.eth1Q[0].queue.p5  queueLength:vector  ETV
attr interpolationmode sample-hold
attr title "queue length, vector"
20	22514 10 0 0 0 0 1 0 0 0 0
vector 24  IedSwitchTest.s1.eth1Q[0].queue.p4  queueLength:vector  ETV
attr interpolationmode sample-hold
attr title "queue length, vector"
24	22524 10 0 0 0 0 1 0 0 0 0
vector 28  IedSwitchTest.s1.eth1Q[0].queue.p3  queueLength:vector  ETV
attr interpolationmode sample-hold
attr title "queue length, vector"
28	22534 10 0 0 0 0 1 0 0 0 0
vector 32  IedSwitchTest.s1.eth1Q[0].queue.p2  queueLength:vector  ETV
attr interpolationmode sample-hold
attr title "queue length, vector"
32	22544 10 0 0 0 0 1 0 0 0 0
vector 36  IedSwitchTest.s1.eth1Q[0].queue.p1  queueLength:vector  ETV
attr interpolationmode sample-hold
attr title "queue length, vector"
36	22602 56 0 142 0 1 5 0 1 2 2
vector 40  IedSwitchTest.s1.eth1Q[0].queue.p0  queueLength:vector  ETV
attr interpolationmode sample-hold
attr title "queue length, vector"
40	22658 10 0 0 0 0 1 0 0 0 0
vector 53  IedSwitchTest.s1.eth1Q[1].queue.p7  queueLength:vector  ETV
attr interpolationmode sample-hold
attr title "queue length, vector"
53	22756 10 0 0 0 0 1 0 0 0 0
vector 57  IedSwitchTest.s1.eth1Q[1].queue.p6  queueLength:vector  ETV
attr interpolationmode sample-hold
attr title "queue length, vector"
57	22766 10 0 0 0 0 1 0 0 0 0
vector 61  IedSwitchTest.s1.eth1Q[1].queue.p5  queueLength:vector  ETV
attr interpolationmode sample-hold
attr title "queue length, vector"
61	22776 10 0 0 0 0 1 0 0 0 0
vector 65  IedSwitchTest.s1.eth1Q[1].queue.p4  queueLength:vector  ETV
attr interpolationmode sample-hold
attr title "queue length, vector"
65	22786 10 0 0 0 0 1 0 0 0 0
vector 69  IedSwitchTest.s1.eth1Q[1].queue.p3  queueLength:vector  ETV
attr interpolationmode sample-hold
attr title "queue length, vector"
69	22796 10 0 0 0 0 1 0 0 0 0
vector 73  IedSwitchTest.s1.eth1Q[1].queue.p2  queueLength:vector  ETV
attr interpolationmode sample-hold
attr title "queue length, vector"
73	22806 10 0 0 0 0 1 0 0 0 0
vector 77  IedSwitchTest.s1.eth1Q[1].queue.p1  queueLength:vector  ETV
attr interpolationmode sample-hold
attr title "queue length, vector"
77	22864 56 0 143 0 1 5 0 1 2 2
vector 81  IedSwitchTest.s1.eth1Q[1].queue.p0  queueLength:vector  ETV
attr interpolationmode sample-hold
attr title "queue length, vector"
81	22920 10 0 0 0 0 1 0 0 0 0
vector 94  IedSwitchTest.s2.eth1Q[0].queue.p7  queueLength:vector  ETV
attr interpolationmode sample-hold
attr title "queue length, vector"
94	23018 10 0 0 0 0 1 0 0 0 0
vector 98  IedSwitchTest.s2.eth1Q[0].queue.p6  queueLength:vector  ETV
attr interpolationmode sample-hold
attr title "queue length, vector"
98	23028 10 0 0 0 0 1 0 0 0 0
vector 102  IedSwitchTest.s2.eth1Q[0].queue.p5  queueLength:vector  ETV
attr interpolationmode sample-hold
attr title "queue length, vector"
102	23038 11 0 0 0 0 1 0 0 0 0
vector 106  IedSwitchTest.s2.eth1Q[0].queue.p4  queueLength:vector  ETV
attr interpolationmode sample-hold
attr title "queue length, vector"
106	23049 11 0 0 0 0 1 0 0 0 0
vector 110  IedSwitchTest.s2.eth1Q[0].queue.p3  queueLength:vector  ETV
attr interpolationmode sample-hold
attr title "queue length, vector"
110	23060 11 0 0 0 0 1 0 0 0 0
vector 114  IedSwitchTest.s2.eth1Q[0].queue.p2  queueLength:vector  ETV
attr interpolationmode sample-hold
attr title "queue length, vector"
114	23071 11 0 0 0 0 1 0 0 0 0
vector 118  IedSwitchTest.s2.eth1Q[0].queue.p1  queueLength:vector  ETV
attr interpolationmode sample-hold
attr title "queue length, vector"
118	23134 61 0 144 0 1 5 0 1 2 2
vector 122  IedSwitchTest.s2.eth1Q[0].queue.p0  queueLength:vector  ETV
attr interpolationmode sample-hold
attr title "queue length, vector"
122	23195 11 0 0 0 0 1 0 0 0 0
vector 135  IedSwitchTest.s2.eth1Q[1].queue.p7  queueLength:vector  ETV
attr interpolationmode sample-hold
attr title "queue length, vector"
135	23241 11 0 0 0 0 1 0 0 0 0
vector 139  IedSwitchTest.s2.eth1Q[1].queue.p6  queueLength:vector  ETV
attr interpolationmode sample-hold
attr title "queue length, vector"
139	23252 11 0 0 0 0 1 0 0 0 0
vector 143  IedSwitchTest.s2.eth1Q[1].queue.p5  queueLength:vector  ETV
attr interpolationmode sample-hold
attr title "queue length, vector"
143	23263 11 0 0 0 0 1 0 0 0 0
vector 147  IedSwitchTest.s2.eth1Q[1].queue.p4  queueLength:vector  ETV
attr interpolationmode sample-hold
attr title "queue length, vector"
147	23274 11 0 0 0 0 1 0 0 0 0
vector 151  IedSwitchTest.s2.eth1Q[1].queue.p3  queueLength:vector  ETV
attr interpolationmode sample-hold
attr title "queue length, vector"
151	23285 11 0 0 0 0 1 0 0 0 0
vector 155  IedSwitchTest.s2.eth1Q[1].queue.p2  queueLength:vector  ETV
attr interpolationmode sample-hold
attr title "queue length, vector"
155	23296 11 0 0 0 0 1 0 0 0 0
vector 159  IedSwitchTest.s2.eth1Q[1].queue.p1  queueLength:vector  ETV
attr interpolationmode sample-hold
attr title "queue length, vector"
159	23359 61 0 145 0 1 5 0 1 2 2
vector 163  IedSwitchTest.s2.eth1Q[1].queue.p0  queueLength:vector  ETV
attr interpolationmode sample-hold
attr title "queue length, vector"
163	23420 11 0 0 0 0 1 0 0 0 0
vector 176  IedSwitchTest.s2.eth1Q[2].queue.p7  queueLength:vector  ETV
attr interpolationmode sample-hold
attr title "queue length, vector"
176	23510 11 0 0 0 0 1 0 0 0 0
vector 180  IedSwitchTest.s2.eth1Q[2].queue.p6  queueLength:vector  ETV
attr interpolationmode sample-hold
attr title "queue length, vector"
180	23521 11 0 0 0 0 1 0 0 0 0
vector 184  IedSwitchTest.s2.eth1Q[2].queue.p5  queueLength:vector  ETV
attr interpolationmode sample-hold
attr title "queue length, vector"
184	23532 11 0 0 0 0 1 0 0 0 0
vector 188  IedSwitchTest.s2.eth1Q[2].queue.p4  queueLength:vector  ETV
attr interpolationmode sample-hold
attr title "queue length, vector"
188	23543 11 0 0 0 0 1 0 0 0 0
vector 192  IedSwitchTest.s2.eth1Q[2].queue.p3  queueLength:vector  ETV
attr interpolationmode sample-hold
attr title "queue length, vector"
192	23554 11 0 0 0 0 1 0 0 0 0
vector 196  IedSwitchTest.s2.eth1Q[2].queue.p2  queueLength:vector  ETV
attr interpolationmode sample-hold
attr title "queue length, vector"
196	23565 11 0 0 0 0 1 0 0 0 0
vector 200  IedSwitchTest.s2.eth1Q[2].queue.p1  queueLength:vector  ETV
attr interpolationmode sample-hold
attr title "queue length, vector"
200	23628 61 0 146 0 1 5 0 1 2 2
vector 204  IedSwitchTest.s2.eth1Q[2].queue.p0  queueLength:vector  ETV
attr interpolationmode sample-hold
attr title "queue length, vector"
204	23689 11 0 0 0 0 1 0 0 0 0
vector 217  IedSwitchTest.s3.eth1Q[0].queue.p7  queueLength:vector  ETV
attr interpolationmode sample-hold
attr title "queue length, vector"
217	23779 11 0 0 0 0 1 0 0 0 0
vector 221  IedSwitchTest.s3.eth1Q[0].queue.p6  queueLength:vector  ETV
attr interpolationmode sample-hold
attr title "queue length, vector"
221	23790 11 0 0 0 0 1 0 0 0 0
vector 225  IedSwitchTest.s3.eth1Q[0].queue.p5  queueLength:vector  ETV
attr interpolationmode sample-hold
attr title "queue length, vector"
225	23801 11 0 0 0 0 1 0 0 0 0
vector 229  IedSwitchTest.s3.eth1Q[0].queue.p4  queueLength:vector  ETV
attr interpolationmode sample-hold
attr title "queue length, vector"
229	23812 11 0 0 0 0 1 0 0 0 0
vector 233  IedSwitchTest.s3.eth1Q[0].queue.p3  queueLength:vector  ETV
attr interpolationmode sample-hold
attr title "queue length, vector"
233	23823 11 0 0 0 0 1 0 0 0 0
vector 237  IedSwitchTest.s3.eth1Q[0].queue.p2  queueLength:vector  ETV
attr interpolationmode sample-hold
attr title "queue length, vector"
237	23834 11 0 0 0 0 1 0 0 0 0
vector 241  IedSwitchTest.s3.eth1Q[0].queue.p1  queueLength:vector  ETV
attr interpolationmode sample-hold
attr title "queue length, vector"
241	23897 61 0 147 0 1 5 0 1 2 2
vector 245  IedSwitchTest.s3.eth1Q[0].queue.p0  queueLength:vector  ETV
attr interpolationmode sample-hold
attr title "queue length, vector"
245	23958 11 0 0 0 0 1 0 0 0 0
vector 258  IedSwitchTest.s3.eth1Q[1].queue.p7  queueLength:vector  ETV
attr interpolationmode sample-hold
attr title "queue length, vector"
258	24004 11 0 0 0 0 1 0 0 0 0
vector 262  IedSwitchTest.s3.eth1Q[1].queue.p6  queueLength:vector  ETV
attr interpolationmode sample-hold
attr title "queue length, vector"
262	24015 11 0 0 0 0 1 0 0 0 0
vector 266  IedSwitchTest.s3.eth1Q[1].queue.p5  queueLength:vector  ETV
attr interpolationmode sample-hold
attr title "queue length, vector"
266	24026 11 0 0 0 0 1 0 0 0 0
vector 270  IedSwitchTest.s3.eth1Q[1].queue.p4  queueLength:vector  ETV
attr interpolationmode sample-hold
attr title "queue length, vector"
270	24037 11 0 0 0 0 1 0 0 0 0
vector 274  IedSwitchTest.s3.eth1Q[1].queue.p3  queueLength:vector  ETV
attr interpolationmode sample-hold
attr title "queue length, vector"
274	24048 11 0 0 0 0 1 0 0 0 0
vector 278  IedSwitchTest.s3.eth1Q[1].queue.p2  queueLength:vector  ETV
attr interpolationmode sample-hold
attr title "queue length, vector"
278	24059 11 0 0 0 0 1 0 0 0 0
vector 282  IedSwitchTest.s3.eth1Q[1].queue.p1  queueLength:vector  ETV
attr interpolationmode sample-hold
attr title "queue length, vector"
282	24122 61 0 148 0 1 5 0 1 2 2
vector 286  IedSwitchTest.s3.eth1Q[1].queue.p0  queueLength:vector  ETV
attr interpolationmode sample-hold
attr title "queue length, vector"
286	24183 11 0 0 0 0 1 0 0 0 0
vector 308  IedSwitchTest.ied1.eth1.queue.p7  queueLength:vector  ETV
attr interpolationmode sample-hold
attr title "queue length, vector"
308	24333 11 0 0 0 0 1 0 0 0 0
vector 312  IedSwitchTest.ied1.eth1.queue.p6  queueLength:vector  ETV
attr interpolationmode sample-hold
attr title "queue length, vector"
312	24344 11 0 0 0 0 1 0 0 0 0
vector 316  IedSwitchTest.ied1.eth1.queue.p5  queueLength:vector  ETV
attr interpolationmode sample-hold
attr title "queue length, vector"
316	24355 11 0 0 0 0 1 0 0 0 0
vector 320  IedSwitchTest.ied1.eth1.queue.p4  queueLength:vector  ETV
attr interpolationmode sample-hold
attr title "queue length, vector"
320	24366 11 0 0 0 0 1 0 0 0 0
vector 324  IedSwitchTest.ied1.eth1.queue.p3  queueLength:vector  ETV
attr interpolationmode sample-hold
attr title "queue length, vector"
324	24377 11 0 0 0 0 1 0 0 0 0
vector 328  IedSwitchTest.ied1.eth1.queue.p2  queueLength:vector  ETV
attr interpolationmode sample-hold
attr title "queue length, vector"
328	24388 11 0 0 0 0 1 0 0 0 0
vector 332  IedSwitchTest.ied1.eth1.queue.p1  queueLength:vector  ETV
attr interpolationmode sample-hold
attr title "queue length, vector"
332	24451 61 0 149 0 1 5 0 1 2 2
vector 336  IedSwitchTest.ied1.eth1.queue.p0  queueLength:vector  ETV
attr interpolationmode sample-hold
attr title "queue length, vector"
336	24512 11 0 0 0 0 1 0 0 0 0
vector 349  IedSwitchTest.ied1.eth2.queue.p7  queueLength:vector  ETV
attr interpolationmode sample-hold
attr title "queue length, vector"
349	24523 11 0 0 0 0 1 0 0 0 0
vector 353  IedSwitchTest.ied1.eth2.queue.p6  queueLength:vector  ETV
attr interpolationmode sample-hold
attr title "queue length, vector"
353	24534 11 0 0 0 0 1 0 0 0 0
vector 357  IedSwitchTest.ied1.eth2.queue.p5  queueLength:vector  ETV
attr interpolationmode sample-hold
attr title "queue length, vector"
357	24545 11 0 0 0 0 1 0 0 0 0
vector 361  IedSwitchTest.ied1.eth2.queue.p4  queueLength:vector  ETV
attr interpolationmode sample-hold
attr title "queue length, vector"
361	24556 11 0 0 0 0 1 0 0 0 0
vector 365  IedSwitchTest.ied1.eth2.queue.p3  queueLength:vector  ETV
attr interpolationmode sample-hold
attr title "queue length, vector"
365	24567 11 0 0 0 0 1 0 0 0 0
vector 369  IedSwitchTest.ied1.eth2.queue.p2  queueLength:vector  ETV
attr interpolationmode sample-hold
attr title "queue length, vector"
369	24578 11 0 0 0 0 1 0 0 0 0
vector 373  IedSwitchTest.ied1.eth2.queue.p1  queueLength:vector  ETV
attr interpolationmode sample-hold
attr title "queue length, vector"
373	24641 61 0 150 0 1 5 0 1 2 2
vector 377  IedSwitchTest.ied1.eth2.queue.p0  queueLength:vector  ETV
attr interpolationmode sample-hold
attr title "queue length, vector"
377	24702 11 0 0 0 0 1 0 0 0 0
vector 408  IedSwitchTest.ied2.queue.pauseQueue  queueLength:vector  ETV
attr interpolationmode sample-hold
attr title "queue length, vector"
408	24814 11 0 0 0 0 1 0 0 0 0
vector 412  IedSwitchTest.ied2.queue.dataQueue  queueLength:vector  ETV
attr interpolationmode sample-hold
attr title "queue length, vector"
412	24854 37 0 153 0 1 3 0 1 1 1
vector 443  IedSwitchTest.ied3.queue.pauseQueue  queueLength:vector  ETV
attr interpolationmode sample-hold
attr title "queue length, vector"
443	24966 11 0 0 0 0 1 0 0 0 0
vector 447  IedSwitchTest.ied3.queue.dataQueue  queueLength:vector  ETV
attr interpolationmode sample-hold
attr title "queue length, vector"
447	25006 37 0 154 0 1 3 0 1 1 1
vector 33  IedSwitchTest.s1.eth1Q[0].queue.p1  rcvdPk:vector(packetBytes)  ETV
attr interpolationmode none
attr title "received packets, vector(packetBytes)"
33	22554 25 25 142 0 1 2 64 64 128 8192
vector 35  IedSwitchTest.s1.eth1Q[0].queue.p1  queueingTime:vector  ETV
attr interpolationmode none
attr title "queueing time, vector"
35	22579 23 25 142 0 1 2 0 0 0 0
vector 74  IedSwitchTest.s1.eth1Q[1].queue.p1  rcvdPk:vector(packetBytes)  ETV
attr interpolationmode none
attr title "received packets, vector(packetBytes)"
74	22816 25 26 143 0 1 2 64 64 128 8192
vector 76  IedSwitchTest.s1.eth1Q[1].queue.p1  queueingTime:vector  ETV
attr interpolationmode none
attr title "queueing time, vector"
76	22841 23 26 143 0 1 2 0 0 0 0
vector 115  IedSwitchTest.s2.eth1Q[0].queue.p1  rcvdPk:vector(packetBytes)  ETV
attr interpolationmode none
attr title "received packets, vector(packetBytes)"
115	23082 27 27 144 0 1 2 64 64 128 8192
vector 117  IedSwitchTest.s2.eth1Q[0].queue.p1  queueingTime:vector  ETV
attr interpolationmode none
attr title "queueing time, vector"
117	23109 25 27 144 0 1 2 0 0 0 0
vector 156  IedSwitchTest.s2.eth1Q[1].queue.p1  rcvdPk:vector(packetBytes)  ETV
attr interpolationmode none
attr title "received packets, vector(packetBytes)"
156	23307 27 28 145 0 1 2 64 64 128 8192
vector 158  IedSwitchTest.s2.eth1Q[1].queue.p1  queueingTime:vector  ETV
attr interpolationmode none
attr title "queueing time, vector"
158	23334 25 28 145 0 1 2 0 0 0 0
vector 197  IedSwitchTest.s2.eth1Q[2].queue.p1  rcvdPk:vector(packetBytes)  ETV
attr interpolationmode none
attr title "received packets, vector(packetBytes)"
197	23576 27 29 146 0 1 2 64 64 128 8192
vector 199  IedSwitchTest.s2.eth1Q[2].queue.p1  queueingTime:vector  ETV
attr interpolationmode none
attr title "queueing time, vector"
199	23603 25 29 146 0 1 2 0 0 0 0
vector 238  IedSwitchTest.s3.eth1Q[0].queue.p1  rcvdPk:vector(packetBytes)  ETV
attr interpolationmode none
attr title "received packets, vector(packetBytes)"
238	23845 27 30 147 0 1 2 64 64 128 8192
vector 240  IedSwitchTest.s3.eth1Q[0].queue.p1  queueingTime:vector  ETV
attr interpolationmode none
attr title "queueing time, vector"
240	23872 25 30 147 0 1 2 0 0 0 0
vector 279  IedSwitchTest.s3.eth1Q[1].queue.p1  rcvdPk:vector(packetBytes)  ETV
attr interpolationmode none
attr title "received packets, vector(packetBytes)"
279	24070 27 31 148 0 1 2 64 64 128 8192
vector 281  IedSwitchTest.s3.eth1Q[1].queue.p1  queueingTime:vector  ETV
attr interpolationmode none
attr title "queueing time, vector"
281	24097 25 31 148 0 1 2 0 0 0 0
vector 329  IedSwitchTest.ied1.eth1.queue.p1  rcvdPk:vector(packetBytes)  ETV
attr interpolationmode none
attr title "received packets, vector(packetBytes)"
329	24399 27 32 149 0 1 2 64 64 128 8192
vector 331  IedSwitchTest.ied1.eth1.queue.p1  queueingTime:vector  ETV
attr interpolationmode none
attr title "queueing time, vector"
331	24426 25 32 149 0 1 2 0 0 0 0
vector 370  IedSwitchTest.ied1.eth2.queue.p1  rcvdPk:vector(packetBytes)  ETV
attr interpolationmode none
attr title "received packets, vector(packetBytes)"
370	24589 27 33 150 0 1 2 64 64 128 8192
vector 372  IedSwitchTest.ied1.eth2.queue.p1  queueingTime:vector  ETV
attr interpolationmode none
attr title "queueing time, vector"
372	24616 25 33 150 0 1 2 0 0 0 0
vector 5  IedSwitchTest.s1.eth1Q[0].mac  rxPkFromHL:vector(packetBytes)  ETV
attr interpolationmode none
attr source rxPkFromHL
attr title "packet bytes from higher layer, vector(packetBytes)"
5	22471 23 43 170 0 1 2 64 64 128 8192
vector 46  IedSwitchTest.s1.eth1Q[1].mac  rxPkFromHL:vector(packetBytes)  ETV
attr interpolationmode none
attr source rxPkFromHL
attr title "packet bytes from higher layer, vector(packetBytes)"
46	22731 25 44 171 0 1 2 64 64 128 8192
vector 87  IedSwitchTest.s2.eth1Q[0].mac  rxPkFromHL:vector(packetBytes)  ETV
attr interpolationmode none
attr source rxPkFromHL
attr title "packet bytes from higher layer, vector(packetBytes)"
87	22993 25 45 172 0 1 2 64 64 128 8192
vector 128  IedSwitchTest.s2.eth1Q[1].mac  rxPkFromHL:vector(packetBytes)  ETV
attr interpolationmode none
attr source rxPkFromHL
attr title "packet bytes from higher layer, vector(packetBytes)"
128	23228 13 46 46 0 0 1 64 64 64 4096
vector 169  IedSwitchTest.s2.eth1Q[2].mac  rxPkFromHL:vector(packetBytes)  ETV
attr interpolationmode none
attr source rxPkFromHL
attr title "packet bytes from higher layer, vector(packetBytes)"
169	23497 13 47 47 0 0 1 64 64 64 4096
vector 210  IedSwitchTest.s3.eth1Q[0].mac  rxPkFromHL:vector(packetBytes)  ETV
attr interpolationmode none
attr source rxPkFromHL
attr title "packet bytes from higher layer, vector(packetBytes)"
210	23766 13 48 48 0 0 1 64 64 64 4096
vector 251  IedSwitchTest.s3.eth1Q[1].mac  rxPkFromHL:vector(packetBytes)  ETV
attr interpolationmode none
attr source rxPkFromHL
attr title "packet bytes from higher layer, vector(packetBytes)"
251	23991 13 49 49 0 0 1 64 64 64 4096
vector 301  IedSwitchTest.ied1.eth1.mac  rxPkFromHL:vector(packetBytes)  ETV
attr interpolationmode none
attr source rxPkFromHL
attr title "packet bytes from higher layer, vector(packetBytes)"
301	24320 13 50 50 0 0 1 64 64 64 4096
vector 83  IedSwitchTest.s2.eth1Q[0].mac  rxPkOk:vector(packetBytes)  ETV
attr interpolationmode none
attr source rxPkOk
attr title "packets received OK, vector(packetBytes)"
83	22951 21 54 54 0.00000576 0.00000576 1 64 64 64 4096
vector 84  IedSwitchTest.s2.eth1Q[0].mac  passedUpPk:vector(packetBytes)  ETV
attr interpolationmode none
attr source packetSentToUpper
attr title "packets passed to higher layer, vector(packetBytes)"
84	22972 21 54 54 0.00000576 0.00000576 1 64 64 64 4096
vector 0  IedSwitchTest.s1.eth1Q[0].mac  txPk:vector(packetBytes)  ETV
attr interpolationmode none
attr source txPk
attr title "packets transmitted, vector(packetBytes)"
0	22411 20 55 55 0.00000576 0.00000576 1 64 64 64 4096
vector 206  IedSwitchTest.s3.eth1Q[0].mac  rxPkOk:vector(packetBytes)  ETV
attr interpolationmode none
attr source rxPkOk
attr title "packets received OK, vector(packetBytes)"
206	23722 22 56 56 0.00000576 0.00000576 1 64 64 64 4096
vector 207  IedSwitchTest.s3.eth1Q[0].mac  passedUpPk:vector(packetBytes)  ETV
attr interpolationmode none
attr source packetSentToUpper
attr title "packets passed to higher layer, vector(packetBytes)"
207	23744 22 56 56 0.00000576 0.00000576 1 64 64 64 4096
vector 41  IedSwitchTest.s1.eth1Q[1].mac  txPk:vector(packetBytes)  ETV
attr interpolationmode none
attr source txPk
attr title "packets transmitted, vector(packetBytes)"
41	22668 21 57 57 0.00000576 0.00000576 1 64 64 64 4096
vector 1  IedSwitchTest.s1.eth1Q[0].mac  rxPkOk:vector(packetBytes)  ETV
attr interpolationmode none
attr source rxPkOk
attr title "packets received OK, vector(packetBytes)"
1	22431 20 58 58 0.00000576 0.00000576 1 64 64 64 4096
vector 2  IedSwitchTest.s1.eth1Q[0].mac  passedUpPk:vector(packetBytes)  ETV
attr interpolationmode none
attr source packetSentToUpper
attr title "packets passed to higher layer, vector(packetBytes)"
2	22451 20 58 58 0.00000576 0.00000576 1 64 64 64 4096
vector 82  IedSwitchTest.s2.eth1Q[0].mac  txPk:vector(packetBytes)  ETV
attr interpolationmode none
attr source txPk
attr title "packets transmitted, vector(packetBytes)"
82	22930 21 59 59 0.00000576 0.00000576 1 64 64 64 4096
vector 123  IedSwitchTest.s2.eth1Q[1].mac  txPk:vector(packetBytes)  ETV
attr interpolationmode none
attr source txPk
attr title "packets transmitted, vector(packetBytes)"
123	23206 22 60 60 0.00000576 0.00000576 1 64 64 64 4096
vector 297  IedSwitchTest.ied1.eth1.mac  rxPkOk:vector(packetBytes)  ETV
attr interpolationmode none
attr source rxPkOk
attr title "packets received OK, vector(packetBytes)"
297	24276 22 61 61 0.00000576 0.00000576 1 64 64 64 4096
vector 298  IedSwitchTest.ied1.eth1.mac  passedUpPk:vector(packetBytes)  ETV
attr interpolationmode none
attr source packetSentToUpper
attr title "packets passed to higher layer, vector(packetBytes)"
298	24298 22 61 61 0.00000576 0.00000576 1 64 64 64 4096
vector 164  IedSwitchTest.s2.eth1Q[2].mac  txPk:vector(packetBytes)  ETV
attr interpolationmode none
attr source txPk
attr title "packets transmitted, vector(packetBytes)"
164	23431 22 62 62 0.00000576 0.00000576 1 64 64 64 4096
vector 42  IedSwitchTest.s1.eth1Q[1].mac  rxPkOk:vector(packetBytes)  ETV
attr interpolationmode none
attr source rxPkOk
attr title "packets received OK, vector(packetBytes)"
42	22689 21 63 63 0.00000576 0.00000576 1 64 64 64 4096
vector 43  IedSwitchTest.s1.eth1Q[1].mac  passedUpPk:vector(packetBytes)  ETV
attr interpolationmode none
attr source packetSentToUpper
attr title "packets passed to higher layer, vector(packetBytes)"
43	22710 21 63 63 0.00000576 0.00000576 1 64 64 64 4096
vector 205  IedSwitchTest.s3.eth1Q[0].mac  txPk:vector(packetBytes)  ETV
attr interpolationmode none
attr source txPk
attr title "packets transmitted, vector(packetBytes)"
205	23700 22 64 64 0.00000576 0.00000576 1 64 64 64 4096
vector 246  IedSwitchTest.s3.eth1Q[1].mac  txPk:vector(packetBytes)  ETV
attr interpolationmode none
attr source txPk
attr title "packets transmitted, vector(packetBytes)"
246	23969 22 65 65 0.00000576 0.00000576 1 64 64 64 4096
vector 165  IedSwitchTest.s2.eth1Q[2].mac  rxPkOk:vector(packetBytes)  ETV
attr interpolationmode none
attr source rxPkOk
attr title "packets received OK, vector(packetBytes)"
165	23453 22 66 66 0.00000576 0.00000576 1 64 64 64 4096
vector 166  IedSwitchTest.s2.eth1Q[2].mac  passedUpPk:vector(packetBytes)  ETV
attr interpolationmode none
attr source packetSentToUpper
attr title "packets passed to higher layer, vector(packetBytes)"
166	23475 22 66 66 0.00000576 0.00000576 1 64 64 64 4096
vector 296  IedSwitchTest.ied1.eth1.mac  txPk:vector(packetBytes)  ETV
attr interpolationmode none
attr source txPk
attr title "packets transmitted, vector(packetBytes)"
296	24254 22 67 67 0.00000576 0.00000576 1 64 64 64 4096
vector 383  IedSwitchTest.ied2.mac  rxPkOk:vector(packetBytes)  ETV
attr interpolationmode none
attr source rxPkOk
attr title "packets received OK, vector(packetBytes)"
383	24739 22 68 68 0.00000576 0.00000576 1 64 64 64 4096
vector 384  IedSwitchTest.ied2.mac  passedUpPk:vector(packetBytes)  ETV
attr interpolationmode none
attr source packetSentToUpper
attr title "packets passed to higher layer, vector(packetBytes)"
384	24761 22 68 68 0.00000576 0.00000576 1 64 64 64 4096
vector 418  IedSwitchTest.ied3.mac  rxPkOk:vector(packetBytes)  ETV
attr interpolationmode none
attr source rxPkOk
attr title "packets received OK, vector(packetBytes)"
418	24891 22 69 69 0.00000576 0.00000576 1 64 64 64 4096
vector 419  IedSwitchTest.ied3.mac  passedUpPk:vector(packetBytes)  ETV
attr interpolationmode none
attr source packetSentToUpper
attr title "packets passed to higher layer, vector(packetBytes)"
419	24913 22 69 69 0.00000576 0.00000576 1 64 64 64 4096
vector 294  IedSwitchTest.ied1.iec61850trafgen  sentPk:vector(packetBytes)  ETV
attr interpolationmode none
attr source sentPk
attr title "packets sent, vector(packetBytes)"
294	24239 15 96 96 1 1 1 1000 1000 1000 1000000
vector 397  IedSwitchTest.ied2.iec61850trafgen  sentPk:vector(packetBytes)  ETV
attr interpolationmode none
attr source sentPk
attr title "packets sent, vector(packetBytes)"
397	24799 15 97 97 1 1 1 1000 1000 1000 1000000
vector 432  IedSwitchTest.ied3.iec61850trafgen  sentPk:vector(packetBytes)  ETV
attr interpolationmode none
attr source sentPk
attr title "packets sent, vector(packetBytes)"
432	24951 15 98 98 1 1 1 1000 1000 1000 1000000
vector 291  IedSwitchTest.ied1.IPburst  sentPk:vector(packetBytes)  ETV
attr interpolationmode none
attr source sentPk
attr title "packets sent, vector(packetBytes)"
291	24224 15 99 99 1 1 1 5000 5000 5000 25000000
vector 287  IedSwitchTest.ied1.encap  encapPk:vector(packetBytes)  ETV
attr interpolationmode none
attr source encapPk
attr title "packets encapsulated, vector(packetBytes)"
287	24194 30 122 155 1 1 2 28 1000 1028 1000784
vector 393  IedSwitchTest.ied2.encap  encapPk:vector(packetBytes)  ETV
attr interpolationmode none
attr source encapPk
attr title "packets encapsulated, vector(packetBytes)"
393	24783 16 123 123 1 1 1 1000 1000 1000 1000000
vector 428  IedSwitchTest.ied3.encap  encapPk:vector(packetBytes)  ETV
attr interpolationmode none
attr source encapPk
attr title "packets encapsulated, vector(packetBytes)"
428	24935 16 124 124 1 1 1 1000 1000 1000 1000000
vector 378  IedSwitchTest.ied1.networkLayer.arp  sentReq:vector  ETV
attr title "ARP request sent, vector"
378	24713 13 125 125 1 1 1 1 1 1 1
vector 380  IedSwitchTest.ied1.networkLayer.arp  initiatedResolution:vector  ETV
attr title "ARP initiated resolutions, vector"
380	24726 13 125 125 1 1 1 1 1 1 1
vector 409  IedSwitchTest.ied2.queue.dataQueue  rcvdPk:vector(packetBytes)  ETV
attr interpolationmode none
attr title "received packets, vector(packetBytes)"
409	24825 16 153 153 1 1 1 1018 1018 1018 1036324
vector 411  IedSwitchTest.ied2.queue.dataQueue  queueingTime:vector  ETV
attr interpolationmode none
attr title "queueing time, vector"
411	24841 13 153 153 1 1 1 0 0 0 0
vector 444  IedSwitchTest.ied3.queue.dataQueue  rcvdPk:vector(packetBytes)  ETV
attr interpolationmode none
attr title "received packets, vector(packetBytes)"
444	24977 16 154 154 1 1 1 1018 1018 1018 1036324
vector 446  IedSwitchTest.ied3.queue.dataQueue  queueingTime:vector  ETV
attr interpolationmode none
attr title "queueing time, vector"
446	24993 13 154 154 1 1 1 0 0 0 0
