file 14030 1379435541                                           
version 2
run no8021Q-0-20130917-13:31:06-11749
attr configname no8021Q
attr datetime 20130917-13:31:06
attr experiment no8021Q
attr inifile omnetpp.ini
attr iterationvars ""
attr iterationvars2 $repetition=0
attr measurement ""
attr network SubstationSidhu2007
attr processid 11749
attr repetition 0
attr replication #0
attr resultdir results
attr runnumber 0
attr seedset 0

vector 138  SubstationSidhu2007.T1.breaker[0].queue.pauseQueue  queueLength:vector  ETV
attr interpolationmode  sample-hold
attr title  "queue length, vector"
vector 142  SubstationSidhu2007.T1.breaker[0].queue.dataQueue  queueLength:vector  ETV
attr interpolationmode  sample-hold
attr title  "queue length, vector"
vector 175  SubstationSidhu2007.T1.breaker[1].queue.pauseQueue  queueLength:vector  ETV
attr interpolationmode  sample-hold
attr title  "queue length, vector"
vector 179  SubstationSidhu2007.T1.breaker[1].queue.dataQueue  queueLength:vector  ETV
attr interpolationmode  sample-hold
attr title  "queue length, vector"
vector 212  SubstationSidhu2007.T1.control[0].queue.pauseQueue  queueLength:vector  ETV
attr interpolationmode  sample-hold
attr title  "queue length, vector"
vector 216  SubstationSidhu2007.T1.control[0].queue.dataQueue  queueLength:vector  ETV
attr interpolationmode  sample-hold
attr title  "queue length, vector"
vector 249  SubstationSidhu2007.T1.control[1].queue.pauseQueue  queueLength:vector  ETV
attr interpolationmode  sample-hold
attr title  "queue length, vector"
vector 253  SubstationSidhu2007.T1.control[1].queue.dataQueue  queueLength:vector  ETV
attr interpolationmode  sample-hold
attr title  "queue length, vector"
vector 356  SubstationSidhu2007.T1.mu.queue.pauseQueue  queueLength:vector  ETV
attr interpolationmode  sample-hold
attr title  "queue length, vector"
vector 360  SubstationSidhu2007.T1.mu.queue.dataQueue  queueLength:vector  ETV
attr interpolationmode  sample-hold
attr title  "queue length, vector"
vector 393  SubstationSidhu2007.T2.breaker[0].queue.pauseQueue  queueLength:vector  ETV
attr interpolationmode  sample-hold
attr title  "queue length, vector"
vector 397  SubstationSidhu2007.T2.breaker[0].queue.dataQueue  queueLength:vector  ETV
attr interpolationmode  sample-hold
attr title  "queue length, vector"
vector 430  SubstationSidhu2007.T2.breaker[1].queue.pauseQueue  queueLength:vector  ETV
attr interpolationmode  sample-hold
attr title  "queue length, vector"
vector 434  SubstationSidhu2007.T2.breaker[1].queue.dataQueue  queueLength:vector  ETV
attr interpolationmode  sample-hold
attr title  "queue length, vector"
vector 467  SubstationSidhu2007.T2.control[0].queue.pauseQueue  queueLength:vector  ETV
attr interpolationmode  sample-hold
attr title  "queue length, vector"
vector 471  SubstationSidhu2007.T2.control[0].queue.dataQueue  queueLength:vector  ETV
attr interpolationmode  sample-hold
attr title  "queue length, vector"
vector 504  SubstationSidhu2007.T2.control[1].queue.pauseQueue  queueLength:vector  ETV
attr interpolationmode  sample-hold
attr title  "queue length, vector"
vector 508  SubstationSidhu2007.T2.control[1].queue.dataQueue  queueLength:vector  ETV
attr interpolationmode  sample-hold
attr title  "queue length, vector"
vector 611  SubstationSidhu2007.T2.mu.queue.pauseQueue  queueLength:vector  ETV
attr interpolationmode  sample-hold
attr title  "queue length, vector"
vector 615  SubstationSidhu2007.T2.mu.queue.dataQueue  queueLength:vector  ETV
attr interpolationmode  sample-hold
attr title  "queue length, vector"
vector 648  SubstationSidhu2007.S1.breaker[0].queue.pauseQueue  queueLength:vector  ETV
attr interpolationmode  sample-hold
attr title  "queue length, vector"
vector 652  SubstationSidhu2007.S1.breaker[0].queue.dataQueue  queueLength:vector  ETV
attr interpolationmode  sample-hold
attr title  "queue length, vector"
vector 685  SubstationSidhu2007.S1.control[0].queue.pauseQueue  queueLength:vector  ETV
attr interpolationmode  sample-hold
attr title  "queue length, vector"
vector 689  SubstationSidhu2007.S1.control[0].queue.dataQueue  queueLength:vector  ETV
attr interpolationmode  sample-hold
attr title  "queue length, vector"
vector 770  SubstationSidhu2007.S1.mu.queue.pauseQueue  queueLength:vector  ETV
attr interpolationmode  sample-hold
attr title  "queue length, vector"
vector 774  SubstationSidhu2007.S1.mu.queue.dataQueue  queueLength:vector  ETV
attr interpolationmode  sample-hold
attr title  "queue length, vector"
vector 807  SubstationSidhu2007.F1.breaker[0].queue.pauseQueue  queueLength:vector  ETV
attr interpolationmode  sample-hold
attr title  "queue length, vector"
vector 811  SubstationSidhu2007.F1.breaker[0].queue.dataQueue  queueLength:vector  ETV
attr interpolationmode  sample-hold
attr title  "queue length, vector"
vector 844  SubstationSidhu2007.F1.control[0].queue.pauseQueue  queueLength:vector  ETV
attr interpolationmode  sample-hold
attr title  "queue length, vector"
vector 848  SubstationSidhu2007.F1.control[0].queue.dataQueue  queueLength:vector  ETV
attr interpolationmode  sample-hold
attr title  "queue length, vector"
vector 881  SubstationSidhu2007.F1.control[1].queue.pauseQueue  queueLength:vector  ETV
attr interpolationmode  sample-hold
attr title  "queue length, vector"
vector 885  SubstationSidhu2007.F1.control[1].queue.dataQueue  queueLength:vector  ETV
attr interpolationmode  sample-hold
attr title  "queue length, vector"
vector 977  SubstationSidhu2007.F1.mu.queue.pauseQueue  queueLength:vector  ETV
attr interpolationmode  sample-hold
attr title  "queue length, vector"
vector 981  SubstationSidhu2007.F1.mu.queue.dataQueue  queueLength:vector  ETV
attr interpolationmode  sample-hold
attr title  "queue length, vector"
vector 1014  SubstationSidhu2007.F2.breaker[0].queue.pauseQueue  queueLength:vector  ETV
attr interpolationmode  sample-hold
attr title  "queue length, vector"
vector 1018  SubstationSidhu2007.F2.breaker[0].queue.dataQueue  queueLength:vector  ETV
attr interpolationmode  sample-hold
attr title  "queue length, vector"
vector 1051  SubstationSidhu2007.F2.control[0].queue.pauseQueue  queueLength:vector  ETV
attr interpolationmode  sample-hold
attr title  "queue length, vector"
vector 1055  SubstationSidhu2007.F2.control[0].queue.dataQueue  queueLength:vector  ETV
attr interpolationmode  sample-hold
attr title  "queue length, vector"
vector 1088  SubstationSidhu2007.F2.control[1].queue.pauseQueue  queueLength:vector  ETV
attr interpolationmode  sample-hold
attr title  "queue length, vector"
vector 1092  SubstationSidhu2007.F2.control[1].queue.dataQueue  queueLength:vector  ETV
attr interpolationmode  sample-hold
attr title  "queue length, vector"
vector 1184  SubstationSidhu2007.F2.mu.queue.pauseQueue  queueLength:vector  ETV
attr interpolationmode  sample-hold
attr title  "queue length, vector"
vector 1188  SubstationSidhu2007.F2.mu.queue.dataQueue  queueLength:vector  ETV
attr interpolationmode  sample-hold
attr title  "queue length, vector"
vector 1221  SubstationSidhu2007.F3.breaker[0].queue.pauseQueue  queueLength:vector  ETV
attr interpolationmode  sample-hold
attr title  "queue length, vector"
vector 1225  SubstationSidhu2007.F3.breaker[0].queue.dataQueue  queueLength:vector  ETV
attr interpolationmode  sample-hold
attr title  "queue length, vector"
vector 1258  SubstationSidhu2007.F3.control[0].queue.pauseQueue  queueLength:vector  ETV
attr interpolationmode  sample-hold
attr title  "queue length, vector"
vector 1262  SubstationSidhu2007.F3.control[0].queue.dataQueue  queueLength:vector  ETV
attr interpolationmode  sample-hold
attr title  "queue length, vector"
vector 1295  SubstationSidhu2007.F3.control[1].queue.pauseQueue  queueLength:vector  ETV
attr interpolationmode  sample-hold
attr title  "queue length, vector"
vector 1299  SubstationSidhu2007.F3.control[1].queue.dataQueue  queueLength:vector  ETV
attr interpolationmode  sample-hold
attr title  "queue length, vector"
vector 1391  SubstationSidhu2007.F3.mu.queue.pauseQueue  queueLength:vector  ETV
attr interpolationmode  sample-hold
attr title  "queue length, vector"
vector 1395  SubstationSidhu2007.F3.mu.queue.dataQueue  queueLength:vector  ETV
attr interpolationmode  sample-hold
attr title  "queue length, vector"
vector 1428  SubstationSidhu2007.F4.breaker[0].queue.pauseQueue  queueLength:vector  ETV
attr interpolationmode  sample-hold
attr title  "queue length, vector"
vector 1432  SubstationSidhu2007.F4.breaker[0].queue.dataQueue  queueLength:vector  ETV
attr interpolationmode  sample-hold
attr title  "queue length, vector"
vector 1465  SubstationSidhu2007.F4.control[0].queue.pauseQueue  queueLength:vector  ETV
attr interpolationmode  sample-hold
attr title  "queue length, vector"
vector 1469  SubstationSidhu2007.F4.control[0].queue.dataQueue  queueLength:vector  ETV
attr interpolationmode  sample-hold
attr title  "queue length, vector"
vector 1502  SubstationSidhu2007.F4.control[1].queue.pauseQueue  queueLength:vector  ETV
attr interpolationmode  sample-hold
attr title  "queue length, vector"
vector 1506  SubstationSidhu2007.F4.control[1].queue.dataQueue  queueLength:vector  ETV
attr interpolationmode  sample-hold
attr title  "queue length, vector"
vector 1598  SubstationSidhu2007.F4.mu.queue.pauseQueue  queueLength:vector  ETV
attr interpolationmode  sample-hold
attr title  "queue length, vector"
vector 1602  SubstationSidhu2007.F4.mu.queue.dataQueue  queueLength:vector  ETV
attr interpolationmode  sample-hold
attr title  "queue length, vector"
vector 1635  SubstationSidhu2007.F5.breaker[0].queue.pauseQueue  queueLength:vector  ETV
attr interpolationmode  sample-hold
attr title  "queue length, vector"
vector 1639  SubstationSidhu2007.F5.breaker[0].queue.dataQueue  queueLength:vector  ETV
attr interpolationmode  sample-hold
attr title  "queue length, vector"
vector 1672  SubstationSidhu2007.F5.control[0].queue.pauseQueue  queueLength:vector  ETV
attr interpolationmode  sample-hold
attr title  "queue length, vector"
vector 1676  SubstationSidhu2007.F5.control[0].queue.dataQueue  queueLength:vector  ETV
attr interpolationmode  sample-hold
attr title  "queue length, vector"
vector 1709  SubstationSidhu2007.F5.control[1].queue.pauseQueue  queueLength:vector  ETV
attr interpolationmode  sample-hold
attr title  "queue length, vector"
vector 1713  SubstationSidhu2007.F5.control[1].queue.dataQueue  queueLength:vector  ETV
attr interpolationmode  sample-hold
attr title  "queue length, vector"
vector 1805  SubstationSidhu2007.F5.mu.queue.pauseQueue  queueLength:vector  ETV
attr interpolationmode  sample-hold
attr title  "queue length, vector"
vector 1809  SubstationSidhu2007.F5.mu.queue.dataQueue  queueLength:vector  ETV
attr interpolationmode  sample-hold
attr title  "queue length, vector"
vector 1842  SubstationSidhu2007.F6.breaker[0].queue.pauseQueue  queueLength:vector  ETV
attr interpolationmode  sample-hold
attr title  "queue length, vector"
vector 1846  SubstationSidhu2007.F6.breaker[0].queue.dataQueue  queueLength:vector  ETV
attr interpolationmode  sample-hold
attr title  "queue length, vector"
vector 1879  SubstationSidhu2007.F6.control[0].queue.pauseQueue  queueLength:vector  ETV
attr interpolationmode  sample-hold
attr title  "queue length, vector"
vector 1883  SubstationSidhu2007.F6.control[0].queue.dataQueue  queueLength:vector  ETV
attr interpolationmode  sample-hold
attr title  "queue length, vector"
vector 1916  SubstationSidhu2007.F6.control[1].queue.pauseQueue  queueLength:vector  ETV
attr interpolationmode  sample-hold
attr title  "queue length, vector"
vector 1920  SubstationSidhu2007.F6.control[1].queue.dataQueue  queueLength:vector  ETV
attr interpolationmode  sample-hold
attr title  "queue length, vector"
vector 2012  SubstationSidhu2007.F6.mu.queue.pauseQueue  queueLength:vector  ETV
attr interpolationmode  sample-hold
attr title  "queue length, vector"
vector 2016  SubstationSidhu2007.F6.mu.queue.dataQueue  queueLength:vector  ETV
attr interpolationmode  sample-hold
attr title  "queue length, vector"
vector 2046  SubstationSidhu2007.server.queue.p7  queueLength:vector  ETV
attr interpolationmode  sample-hold
attr title  "queue length, vector"
vector 2050  SubstationSidhu2007.server.queue.p6  queueLength:vector  ETV
attr interpolationmode  sample-hold
attr title  "queue length, vector"
vector 2054  SubstationSidhu2007.server.queue.p5  queueLength:vector  ETV
attr interpolationmode  sample-hold
attr title  "queue length, vector"
vector 2058  SubstationSidhu2007.server.queue.p4  queueLength:vector  ETV
attr interpolationmode  sample-hold
attr title  "queue length, vector"
vector 2062  SubstationSidhu2007.server.queue.p3  queueLength:vector  ETV
attr interpolationmode  sample-hold
attr title  "queue length, vector"
vector 2066  SubstationSidhu2007.server.queue.p2  queueLength:vector  ETV
attr interpolationmode  sample-hold
attr title  "queue length, vector"
vector 2070  SubstationSidhu2007.server.queue.p1  queueLength:vector  ETV
attr interpolationmode  sample-hold
attr title  "queue length, vector"
vector 2074  SubstationSidhu2007.server.queue.p0  queueLength:vector  ETV
attr interpolationmode  sample-hold
attr title  "queue length, vector"
138	13162 10 0 0 0 0 1 0 0 0 0
142	13172 10 0 0 0 0 1 0 0 0 0
175	13182 10 0 0 0 0 1 0 0 0 0
179	13192 10 0 0 0 0 1 0 0 0 0
212	13202 10 0 0 0 0 1 0 0 0 0
216	13212 10 0 0 0 0 1 0 0 0 0
249	13222 10 0 0 0 0 1 0 0 0 0
253	13232 10 0 0 0 0 1 0 0 0 0
356	13242 10 0 0 0 0 1 0 0 0 0
360	13252 10 0 0 0 0 1 0 0 0 0
393	13262 10 0 0 0 0 1 0 0 0 0
397	13272 10 0 0 0 0 1 0 0 0 0
430	13282 10 0 0 0 0 1 0 0 0 0
434	13292 10 0 0 0 0 1 0 0 0 0
467	13302 10 0 0 0 0 1 0 0 0 0
471	13312 10 0 0 0 0 1 0 0 0 0
504	13322 10 0 0 0 0 1 0 0 0 0
508	13332 10 0 0 0 0 1 0 0 0 0
611	13342 10 0 0 0 0 1 0 0 0 0
615	13352 10 0 0 0 0 1 0 0 0 0
648	13362 10 0 0 0 0 1 0 0 0 0
652	13372 10 0 0 0 0 1 0 0 0 0
685	13382 10 0 0 0 0 1 0 0 0 0
689	13392 10 0 0 0 0 1 0 0 0 0
770	13402 10 0 0 0 0 1 0 0 0 0
774	13412 10 0 0 0 0 1 0 0 0 0
807	13422 10 0 0 0 0 1 0 0 0 0
811	13432 10 0 0 0 0 1 0 0 0 0
844	13442 10 0 0 0 0 1 0 0 0 0
848	13452 10 0 0 0 0 1 0 0 0 0
881	13462 10 0 0 0 0 1 0 0 0 0
885	13472 10 0 0 0 0 1 0 0 0 0
977	13482 10 0 0 0 0 1 0 0 0 0
981	13492 10 0 0 0 0 1 0 0 0 0
1014	13502 11 0 0 0 0 1 0 0 0 0
1018	13513 11 0 0 0 0 1 0 0 0 0
1051	13524 11 0 0 0 0 1 0 0 0 0
1055	13535 11 0 0 0 0 1 0 0 0 0
1088	13546 11 0 0 0 0 1 0 0 0 0
1092	13557 11 0 0 0 0 1 0 0 0 0
1184	13568 11 0 0 0 0 1 0 0 0 0
1188	13579 11 0 0 0 0 1 0 0 0 0
1221	13590 11 0 0 0 0 1 0 0 0 0
1225	13601 11 0 0 0 0 1 0 0 0 0
1258	13612 11 0 0 0 0 1 0 0 0 0
1262	13623 11 0 0 0 0 1 0 0 0 0
1295	13634 11 0 0 0 0 1 0 0 0 0
1299	13645 11 0 0 0 0 1 0 0 0 0
1391	13656 11 0 0 0 0 1 0 0 0 0
1395	13667 11 0 0 0 0 1 0 0 0 0
1428	13678 11 0 0 0 0 1 0 0 0 0
1432	13689 11 0 0 0 0 1 0 0 0 0
1465	13700 11 0 0 0 0 1 0 0 0 0
1469	13711 11 0 0 0 0 1 0 0 0 0
1502	13722 11 0 0 0 0 1 0 0 0 0
1506	13733 11 0 0 0 0 1 0 0 0 0
1598	13744 11 0 0 0 0 1 0 0 0 0
1602	13755 11 0 0 0 0 1 0 0 0 0
1635	13766 11 0 0 0 0 1 0 0 0 0
1639	13777 11 0 0 0 0 1 0 0 0 0
1672	13788 11 0 0 0 0 1 0 0 0 0
1676	13799 11 0 0 0 0 1 0 0 0 0
1709	13810 11 0 0 0 0 1 0 0 0 0
1713	13821 11 0 0 0 0 1 0 0 0 0
1805	13832 11 0 0 0 0 1 0 0 0 0
1809	13843 11 0 0 0 0 1 0 0 0 0
1842	13854 11 0 0 0 0 1 0 0 0 0
1846	13865 11 0 0 0 0 1 0 0 0 0
1879	13876 11 0 0 0 0 1 0 0 0 0
1883	13887 11 0 0 0 0 1 0 0 0 0
1916	13898 11 0 0 0 0 1 0 0 0 0
1920	13909 11 0 0 0 0 1 0 0 0 0
2012	13920 11 0 0 0 0 1 0 0 0 0
2016	13931 11 0 0 0 0 1 0 0 0 0
2046	13942 11 0 0 0 0 1 0 0 0 0
2050	13953 11 0 0 0 0 1 0 0 0 0
2054	13964 11 0 0 0 0 1 0 0 0 0
2058	13975 11 0 0 0 0 1 0 0 0 0
2062	13986 11 0 0 0 0 1 0 0 0 0
2066	13997 11 0 0 0 0 1 0 0 0 0
2070	14008 11 0 0 0 0 1 0 0 0 0
2074	14019 11 0 0 0 0 1 0 0 0 0
