file 32672 1435607599                                           
version 2
run General-0-20130822-14:07:59-6270
attr configname General
attr datetime 20130822-14:07:59
attr experiment General
attr inifile omnetpp.ini
attr iterationvars ""
attr iterationvars2 $repetition=0
attr measurement ""
attr network Substation
attr processid 6270
attr repetition 0
attr replication #0
attr resultdir results
attr runnumber 0
attr seedset 0
vector 61  Substation.iSubstationTopology.feederBay[0].breaker[0].queue.pauseQueue  queueLength:vector  ETV
attr interpolationmode sample-hold
attr title "queue length, vector"
61	30403 10 0 0 0 0 1 0 0 0 0
vector 65  Substation.iSubstationTopology.feederBay[0].breaker[0].queue.dataQueue  queueLength:vector  ETV
attr interpolationmode sample-hold
attr title "queue length, vector"
65	30413 10 0 0 0 0 1 0 0 0 0
vector 98  Substation.iSubstationTopology.feederBay[0].control[0].queue.pauseQueue  queueLength:vector  ETV
attr interpolationmode sample-hold
attr title "queue length, vector"
98	30465 10 0 0 0 0 1 0 0 0 0
vector 102  Substation.iSubstationTopology.feederBay[0].control[0].queue.dataQueue  queueLength:vector  ETV
attr interpolationmode sample-hold
attr title "queue length, vector"
102	30475 11 0 0 0 0 1 0 0 0 0
vector 135  Substation.iSubstationTopology.feederBay[0].control[1].queue.pauseQueue  queueLength:vector  ETV
attr interpolationmode sample-hold
attr title "queue length, vector"
135	30530 11 0 0 0 0 1 0 0 0 0
vector 139  Substation.iSubstationTopology.feederBay[0].control[1].queue.dataQueue  queueLength:vector  ETV
attr interpolationmode sample-hold
attr title "queue length, vector"
139	30541 11 0 0 0 0 1 0 0 0 0
vector 231  Substation.iSubstationTopology.feederBay[0].mu.queue.pauseQueue  queueLength:vector  ETV
attr interpolationmode sample-hold
attr title "queue length, vector"
231	30894 11 0 0 0 0 1 0 0 0 0
vector 235  Substation.iSubstationTopology.feederBay[0].mu.queue.dataQueue  queueLength:vector  ETV
attr interpolationmode sample-hold
attr title "queue length, vector"
235	30905 11 0 0 0 0 1 0 0 0 0
vector 268  Substation.iSubstationTopology.feederBay[1].breaker[0].queue.pauseQueue  queueLength:vector  ETV
attr interpolationmode sample-hold
attr title "queue length, vector"
268	30960 11 0 0 0 0 1 0 0 0 0
vector 272  Substation.iSubstationTopology.feederBay[1].breaker[0].queue.dataQueue  queueLength:vector  ETV
attr interpolationmode sample-hold
attr title "queue length, vector"
272	30971 11 0 0 0 0 1 0 0 0 0
vector 305  Substation.iSubstationTopology.feederBay[1].control[0].queue.pauseQueue  queueLength:vector  ETV
attr interpolationmode sample-hold
attr title "queue length, vector"
305	31026 11 0 0 0 0 1 0 0 0 0
vector 309  Substation.iSubstationTopology.feederBay[1].control[0].queue.dataQueue  queueLength:vector  ETV
attr interpolationmode sample-hold
attr title "queue length, vector"
309	31037 11 0 0 0 0 1 0 0 0 0
vector 342  Substation.iSubstationTopology.feederBay[1].control[1].queue.pauseQueue  queueLength:vector  ETV
attr interpolationmode sample-hold
attr title "queue length, vector"
342	31092 11 0 0 0 0 1 0 0 0 0
vector 346  Substation.iSubstationTopology.feederBay[1].control[1].queue.dataQueue  queueLength:vector  ETV
attr interpolationmode sample-hold
attr title "queue length, vector"
346	31103 11 0 0 0 0 1 0 0 0 0
vector 438  Substation.iSubstationTopology.feederBay[1].mu.queue.pauseQueue  queueLength:vector  ETV
attr interpolationmode sample-hold
attr title "queue length, vector"
438	31460 11 0 0 0 0 1 0 0 0 0
vector 442  Substation.iSubstationTopology.feederBay[1].mu.queue.dataQueue  queueLength:vector  ETV
attr interpolationmode sample-hold
attr title "queue length, vector"
442	31471 11 0 0 0 0 1 0 0 0 0
vector 475  Substation.iSubstationTopology.transformerBay[0].breaker[0].queue.pauseQueue  queueLength:vector  ETV
attr interpolationmode sample-hold
attr title "queue length, vector"
475	31528 11 0 0 0 0 1 0 0 0 0
vector 479  Substation.iSubstationTopology.transformerBay[0].breaker[0].queue.dataQueue  queueLength:vector  ETV
attr interpolationmode sample-hold
attr title "queue length, vector"
479	31539 11 0 0 0 0 1 0 0 0 0
vector 512  Substation.iSubstationTopology.transformerBay[0].control[0].queue.pauseQueue  queueLength:vector  ETV
attr interpolationmode sample-hold
attr title "queue length, vector"
512	31596 11 0 0 0 0 1 0 0 0 0
vector 516  Substation.iSubstationTopology.transformerBay[0].control[0].queue.dataQueue  queueLength:vector  ETV
attr interpolationmode sample-hold
attr title "queue length, vector"
516	31607 11 0 0 0 0 1 0 0 0 0
vector 549  Substation.iSubstationTopology.transformerBay[0].control[1].queue.pauseQueue  queueLength:vector  ETV
attr interpolationmode sample-hold
attr title "queue length, vector"
549	31664 11 0 0 0 0 1 0 0 0 0
vector 553  Substation.iSubstationTopology.transformerBay[0].control[1].queue.dataQueue  queueLength:vector  ETV
attr interpolationmode sample-hold
attr title "queue length, vector"
553	31675 11 0 0 0 0 1 0 0 0 0
vector 645  Substation.iSubstationTopology.transformerBay[0].mu.queue.pauseQueue  queueLength:vector  ETV
attr interpolationmode sample-hold
attr title "queue length, vector"
645	32034 11 0 0 0 0 1 0 0 0 0
vector 649  Substation.iSubstationTopology.transformerBay[0].mu.queue.dataQueue  queueLength:vector  ETV
attr interpolationmode sample-hold
attr title "queue length, vector"
649	32045 11 0 0 0 0 1 0 0 0 0
vector 682  Substation.iSubstationTopology.transformerBay[1].breaker[0].queue.pauseQueue  queueLength:vector  ETV
attr interpolationmode sample-hold
attr title "queue length, vector"
682	32102 11 0 0 0 0 1 0 0 0 0
vector 686  Substation.iSubstationTopology.transformerBay[1].breaker[0].queue.dataQueue  queueLength:vector  ETV
attr interpolationmode sample-hold
attr title "queue length, vector"
686	32113 11 0 0 0 0 1 0 0 0 0
vector 719  Substation.iSubstationTopology.transformerBay[1].control[0].queue.pauseQueue  queueLength:vector  ETV
attr interpolationmode sample-hold
attr title "queue length, vector"
719	32170 11 0 0 0 0 1 0 0 0 0
vector 723  Substation.iSubstationTopology.transformerBay[1].control[0].queue.dataQueue  queueLength:vector  ETV
attr interpolationmode sample-hold
attr title "queue length, vector"
723	32181 11 0 0 0 0 1 0 0 0 0
vector 756  Substation.iSubstationTopology.transformerBay[1].control[1].queue.pauseQueue  queueLength:vector  ETV
attr interpolationmode sample-hold
attr title "queue length, vector"
756	32238 11 0 0 0 0 1 0 0 0 0
vector 760  Substation.iSubstationTopology.transformerBay[1].control[1].queue.dataQueue  queueLength:vector  ETV
attr interpolationmode sample-hold
attr title "queue length, vector"
760	32249 11 0 0 0 0 1 0 0 0 0
vector 852  Substation.iSubstationTopology.transformerBay[1].mu.queue.pauseQueue  queueLength:vector  ETV
attr interpolationmode sample-hold
attr title "queue length, vector"
852	32606 11 0 0 0 0 1 0 0 0 0
vector 856  Substation.iSubstationTopology.transformerBay[1].mu.queue.dataQueue  queueLength:vector  ETV
attr interpolationmode sample-hold
attr title "queue length, vector"
856	32617 11 0 0 0 0 1 0 0 0 0
vector 5  Substation.iSubstationTopology.switch.eth[0]  rxPkFromHL:vector(packetBytes)  ETV
attr interpolationmode none
attr source rxPkFromHL
attr title "packet bytes from higher layer, vector(packetBytes)"
5	30243 10 7 7 0 0 1 64 64 64 4096
vector 16  Substation.iSubstationTopology.switch.eth[1]  rxPkFromHL:vector(packetBytes)  ETV
attr interpolationmode none
attr source rxPkFromHL
attr title "packet bytes from higher layer, vector(packetBytes)"
16	30318 11 8 8 0 0 1 64 64 64 4096
vector 27  Substation.iSubstationTopology.switch.eth[2]  rxPkFromHL:vector(packetBytes)  ETV
attr interpolationmode none
attr source rxPkFromHL
attr title "packet bytes from higher layer, vector(packetBytes)"
27	30350 11 9 9 0 0 1 64 64 64 4096
vector 149  Substation.iSubstationTopology.feederBay[0].switch.eth[0]  rxPkFromHL:vector(packetBytes)  ETV
attr interpolationmode none
attr source rxPkFromHL
attr title "packet bytes from higher layer, vector(packetBytes)"
149	30574 13 10 10 0 0 1 64 64 64 4096
vector 160  Substation.iSubstationTopology.feederBay[0].switch.eth[1]  rxPkFromHL:vector(packetBytes)  ETV
attr interpolationmode none
attr source rxPkFromHL
attr title "packet bytes from higher layer, vector(packetBytes)"
160	30609 13 11 11 0 0 1 64 64 64 4096
vector 171  Substation.iSubstationTopology.feederBay[0].switch.eth[2]  rxPkFromHL:vector(packetBytes)  ETV
attr interpolationmode none
attr source rxPkFromHL
attr title "packet bytes from higher layer, vector(packetBytes)"
171	30644 13 12 12 0 0 1 64 64 64 4096
vector 182  Substation.iSubstationTopology.feederBay[0].switch.eth[3]  rxPkFromHL:vector(packetBytes)  ETV
attr interpolationmode none
attr source rxPkFromHL
attr title "packet bytes from higher layer, vector(packetBytes)"
182	30723 13 13 13 0 0 1 64 64 64 4096
vector 193  Substation.iSubstationTopology.feederBay[0].switch.eth[4]  rxPkFromHL:vector(packetBytes)  ETV
attr interpolationmode none
attr source rxPkFromHL
attr title "packet bytes from higher layer, vector(packetBytes)"
193	30802 13 14 14 0 0 1 64 64 64 4096
vector 204  Substation.iSubstationTopology.feederBay[0].switch.eth[5]  rxPkFromHL:vector(packetBytes)  ETV
attr interpolationmode none
attr source rxPkFromHL
attr title "packet bytes from higher layer, vector(packetBytes)"
204	30837 13 15 15 0 0 1 64 64 64 4096
vector 356  Substation.iSubstationTopology.feederBay[1].switch.eth[0]  rxPkFromHL:vector(packetBytes)  ETV
attr interpolationmode none
attr source rxPkFromHL
attr title "packet bytes from higher layer, vector(packetBytes)"
356	31136 13 16 16 0 0 1 64 64 64 4096
vector 367  Substation.iSubstationTopology.feederBay[1].switch.eth[1]  rxPkFromHL:vector(packetBytes)  ETV
attr interpolationmode none
attr source rxPkFromHL
attr title "packet bytes from higher layer, vector(packetBytes)"
367	31171 13 17 17 0 0 1 64 64 64 4096
vector 378  Substation.iSubstationTopology.feederBay[1].switch.eth[2]  rxPkFromHL:vector(packetBytes)  ETV
attr interpolationmode none
attr source rxPkFromHL
attr title "packet bytes from higher layer, vector(packetBytes)"
378	31206 13 18 18 0 0 1 64 64 64 4096
vector 389  Substation.iSubstationTopology.feederBay[1].switch.eth[3]  rxPkFromHL:vector(packetBytes)  ETV
attr interpolationmode none
attr source rxPkFromHL
attr title "packet bytes from higher layer, vector(packetBytes)"
389	31285 13 19 19 0 0 1 64 64 64 4096
vector 400  Substation.iSubstationTopology.feederBay[1].switch.eth[4]  rxPkFromHL:vector(packetBytes)  ETV
attr interpolationmode none
attr source rxPkFromHL
attr title "packet bytes from higher layer, vector(packetBytes)"
400	31366 13 20 20 0 0 1 64 64 64 4096
vector 411  Substation.iSubstationTopology.feederBay[1].switch.eth[5]  rxPkFromHL:vector(packetBytes)  ETV
attr interpolationmode none
attr source rxPkFromHL
attr title "packet bytes from higher layer, vector(packetBytes)"
411	31401 13 21 21 0 0 1 64 64 64 4096
vector 563  Substation.iSubstationTopology.transformerBay[0].switch.eth[0]  rxPkFromHL:vector(packetBytes)  ETV
attr interpolationmode none
attr source rxPkFromHL
attr title "packet bytes from higher layer, vector(packetBytes)"
563	31708 13 22 22 0 0 1 64 64 64 4096
vector 574  Substation.iSubstationTopology.transformerBay[0].switch.eth[1]  rxPkFromHL:vector(packetBytes)  ETV
attr interpolationmode none
attr source rxPkFromHL
attr title "packet bytes from higher layer, vector(packetBytes)"
574	31743 13 23 23 0 0 1 64 64 64 4096
vector 585  Substation.iSubstationTopology.transformerBay[0].switch.eth[2]  rxPkFromHL:vector(packetBytes)  ETV
attr interpolationmode none
attr source rxPkFromHL
attr title "packet bytes from higher layer, vector(packetBytes)"
585	31778 13 24 24 0 0 1 64 64 64 4096
vector 596  Substation.iSubstationTopology.transformerBay[0].switch.eth[3]  rxPkFromHL:vector(packetBytes)  ETV
attr interpolationmode none
attr source rxPkFromHL
attr title "packet bytes from higher layer, vector(packetBytes)"
596	31859 13 25 25 0 0 1 64 64 64 4096
vector 607  Substation.iSubstationTopology.transformerBay[0].switch.eth[4]  rxPkFromHL:vector(packetBytes)  ETV
attr interpolationmode none
attr source rxPkFromHL
attr title "packet bytes from higher layer, vector(packetBytes)"
607	31940 13 26 26 0 0 1 64 64 64 4096
vector 618  Substation.iSubstationTopology.transformerBay[0].switch.eth[5]  rxPkFromHL:vector(packetBytes)  ETV
attr interpolationmode none
attr source rxPkFromHL
attr title "packet bytes from higher layer, vector(packetBytes)"
618	31975 13 27 27 0 0 1 64 64 64 4096
vector 770  Substation.iSubstationTopology.transformerBay[1].switch.eth[0]  rxPkFromHL:vector(packetBytes)  ETV
attr interpolationmode none
attr source rxPkFromHL
attr title "packet bytes from higher layer, vector(packetBytes)"
770	32282 13 28 28 0 0 1 64 64 64 4096
vector 781  Substation.iSubstationTopology.transformerBay[1].switch.eth[1]  rxPkFromHL:vector(packetBytes)  ETV
attr interpolationmode none
attr source rxPkFromHL
attr title "packet bytes from higher layer, vector(packetBytes)"
781	32317 13 29 29 0 0 1 64 64 64 4096
vector 792  Substation.iSubstationTopology.transformerBay[1].switch.eth[2]  rxPkFromHL:vector(packetBytes)  ETV
attr interpolationmode none
attr source rxPkFromHL
attr title "packet bytes from higher layer, vector(packetBytes)"
792	32352 13 30 30 0 0 1 64 64 64 4096
vector 803  Substation.iSubstationTopology.transformerBay[1].switch.eth[3]  rxPkFromHL:vector(packetBytes)  ETV
attr interpolationmode none
attr source rxPkFromHL
attr title "packet bytes from higher layer, vector(packetBytes)"
803	32433 13 31 31 0 0 1 64 64 64 4096
vector 814  Substation.iSubstationTopology.transformerBay[1].switch.eth[4]  rxPkFromHL:vector(packetBytes)  ETV
attr interpolationmode none
attr source rxPkFromHL
attr title "packet bytes from higher layer, vector(packetBytes)"
814	32512 13 32 32 0 0 1 64 64 64 4096
vector 825  Substation.iSubstationTopology.transformerBay[1].switch.eth[5]  rxPkFromHL:vector(packetBytes)  ETV
attr interpolationmode none
attr source rxPkFromHL
attr title "packet bytes from higher layer, vector(packetBytes)"
825	32547 13 33 33 0 0 1 64 64 64 4096
vector 0  Substation.iSubstationTopology.switch.eth[0]  txPk:vector(packetBytes)  ETV
attr interpolationmode none
attr source txPk
attr title "packets transmitted, vector(packetBytes)"
0	30183 20 60 60 0.00000576 0.00000576 1 64 64 64 4096
vector 11  Substation.iSubstationTopology.switch.eth[1]  txPk:vector(packetBytes)  ETV
attr interpolationmode none
attr source txPk
attr title "packets transmitted, vector(packetBytes)"
11	30253 21 61 61 0.00000576 0.00000576 1 64 64 64 4096
vector 869  Substation.iSubstationTopology.workstation.eth[0].mac  rxPkOk:vector(packetBytes)  ETV
attr interpolationmode none
attr source rxPkOk
attr title "packets received OK, vector(packetBytes)"
869	32628 22 62 62 0.00000576 0.00000576 1 64 64 64 4096
vector 870  Substation.iSubstationTopology.workstation.eth[0].mac  passedUpPk:vector(packetBytes)  ETV
attr interpolationmode none
attr source packetSentToUpper
attr title "packets passed to higher layer, vector(packetBytes)"
870	32650 22 62 62 0.00000576 0.00000576 1 64 64 64 4096
vector 22  Substation.iSubstationTopology.switch.eth[2]  txPk:vector(packetBytes)  ETV
attr interpolationmode none
attr source txPk
attr title "packets transmitted, vector(packetBytes)"
22	30329 21 63 63 0.00000576 0.00000576 1 64 64 64 4096
vector 144  Substation.iSubstationTopology.feederBay[0].switch.eth[0]  txPk:vector(packetBytes)  ETV
attr interpolationmode none
attr source txPk
attr title "packets transmitted, vector(packetBytes)"
144	30552 22 64 64 0.00000576 0.00000576 1 64 64 64 4096
vector 155  Substation.iSubstationTopology.feederBay[0].switch.eth[1]  txPk:vector(packetBytes)  ETV
attr interpolationmode none
attr source txPk
attr title "packets transmitted, vector(packetBytes)"
155	30587 22 65 65 0.00000576 0.00000576 1 64 64 64 4096
vector 166  Substation.iSubstationTopology.feederBay[0].switch.eth[2]  txPk:vector(packetBytes)  ETV
attr interpolationmode none
attr source txPk
attr title "packets transmitted, vector(packetBytes)"
166	30622 22 66 66 0.00000576 0.00000576 1 64 64 64 4096
vector 177  Substation.iSubstationTopology.feederBay[0].switch.eth[3]  txPk:vector(packetBytes)  ETV
attr interpolationmode none
attr source txPk
attr title "packets transmitted, vector(packetBytes)"
177	30657 22 67 67 0.00000576 0.00000576 1 64 64 64 4096
vector 188  Substation.iSubstationTopology.feederBay[0].switch.eth[4]  txPk:vector(packetBytes)  ETV
attr interpolationmode none
attr source txPk
attr title "packets transmitted, vector(packetBytes)"
188	30736 22 68 68 0.00000576 0.00000576 1 64 64 64 4096
vector 199  Substation.iSubstationTopology.feederBay[0].switch.eth[5]  txPk:vector(packetBytes)  ETV
attr interpolationmode none
attr source txPk
attr title "packets transmitted, vector(packetBytes)"
199	30815 22 69 69 0.00000576 0.00000576 1 64 64 64 4096
vector 351  Substation.iSubstationTopology.feederBay[1].switch.eth[0]  txPk:vector(packetBytes)  ETV
attr interpolationmode none
attr source txPk
attr title "packets transmitted, vector(packetBytes)"
351	31114 22 70 70 0.00000576 0.00000576 1 64 64 64 4096
vector 362  Substation.iSubstationTopology.feederBay[1].switch.eth[1]  txPk:vector(packetBytes)  ETV
attr interpolationmode none
attr source txPk
attr title "packets transmitted, vector(packetBytes)"
362	31149 22 71 71 0.00000576 0.00000576 1 64 64 64 4096
vector 373  Substation.iSubstationTopology.feederBay[1].switch.eth[2]  txPk:vector(packetBytes)  ETV
attr interpolationmode none
attr source txPk
attr title "packets transmitted, vector(packetBytes)"
373	31184 22 72 72 0.00000576 0.00000576 1 64 64 64 4096
vector 384  Substation.iSubstationTopology.feederBay[1].switch.eth[3]  txPk:vector(packetBytes)  ETV
attr interpolationmode none
attr source txPk
attr title "packets transmitted, vector(packetBytes)"
384	31219 22 73 73 0.00000576 0.00000576 1 64 64 64 4096
vector 395  Substation.iSubstationTopology.feederBay[1].switch.eth[4]  txPk:vector(packetBytes)  ETV
attr interpolationmode none
attr source txPk
attr title "packets transmitted, vector(packetBytes)"
395	31298 22 74 74 0.00000576 0.00000576 1 64 64 64 4096
vector 406  Substation.iSubstationTopology.feederBay[1].switch.eth[5]  txPk:vector(packetBytes)  ETV
attr interpolationmode none
attr source txPk
attr title "packets transmitted, vector(packetBytes)"
406	31379 22 75 75 0.00000576 0.00000576 1 64 64 64 4096
vector 558  Substation.iSubstationTopology.transformerBay[0].switch.eth[0]  txPk:vector(packetBytes)  ETV
attr interpolationmode none
attr source txPk
attr title "packets transmitted, vector(packetBytes)"
558	31686 22 76 76 0.00000576 0.00000576 1 64 64 64 4096
vector 569  Substation.iSubstationTopology.transformerBay[0].switch.eth[1]  txPk:vector(packetBytes)  ETV
attr interpolationmode none
attr source txPk
attr title "packets transmitted, vector(packetBytes)"
569	31721 22 77 77 0.00000576 0.00000576 1 64 64 64 4096
vector 580  Substation.iSubstationTopology.transformerBay[0].switch.eth[2]  txPk:vector(packetBytes)  ETV
attr interpolationmode none
attr source txPk
attr title "packets transmitted, vector(packetBytes)"
580	31756 22 78 78 0.00000576 0.00000576 1 64 64 64 4096
vector 591  Substation.iSubstationTopology.transformerBay[0].switch.eth[3]  txPk:vector(packetBytes)  ETV
attr interpolationmode none
attr source txPk
attr title "packets transmitted, vector(packetBytes)"
591	31791 22 79 79 0.00000576 0.00000576 1 64 64 64 4096
vector 602  Substation.iSubstationTopology.transformerBay[0].switch.eth[4]  txPk:vector(packetBytes)  ETV
attr interpolationmode none
attr source txPk
attr title "packets transmitted, vector(packetBytes)"
602	31872 22 80 80 0.00000576 0.00000576 1 64 64 64 4096
vector 613  Substation.iSubstationTopology.transformerBay[0].switch.eth[5]  txPk:vector(packetBytes)  ETV
attr interpolationmode none
attr source txPk
attr title "packets transmitted, vector(packetBytes)"
613	31953 22 81 81 0.00000576 0.00000576 1 64 64 64 4096
vector 765  Substation.iSubstationTopology.transformerBay[1].switch.eth[0]  txPk:vector(packetBytes)  ETV
attr interpolationmode none
attr source txPk
attr title "packets transmitted, vector(packetBytes)"
765	32260 22 82 82 0.00000576 0.00000576 1 64 64 64 4096
vector 776  Substation.iSubstationTopology.transformerBay[1].switch.eth[1]  txPk:vector(packetBytes)  ETV
attr interpolationmode none
attr source txPk
attr title "packets transmitted, vector(packetBytes)"
776	32295 22 83 83 0.00000576 0.00000576 1 64 64 64 4096
vector 787  Substation.iSubstationTopology.transformerBay[1].switch.eth[2]  txPk:vector(packetBytes)  ETV
attr interpolationmode none
attr source txPk
attr title "packets transmitted, vector(packetBytes)"
787	32330 22 84 84 0.00000576 0.00000576 1 64 64 64 4096
vector 798  Substation.iSubstationTopology.transformerBay[1].switch.eth[3]  txPk:vector(packetBytes)  ETV
attr interpolationmode none
attr source txPk
attr title "packets transmitted, vector(packetBytes)"
798	32365 22 85 85 0.00000576 0.00000576 1 64 64 64 4096
vector 809  Substation.iSubstationTopology.transformerBay[1].switch.eth[4]  txPk:vector(packetBytes)  ETV
attr interpolationmode none
attr source txPk
attr title "packets transmitted, vector(packetBytes)"
809	32446 22 86 86 0.00000576 0.00000576 1 64 64 64 4096
vector 820  Substation.iSubstationTopology.transformerBay[1].switch.eth[5]  txPk:vector(packetBytes)  ETV
attr interpolationmode none
attr source txPk
attr title "packets transmitted, vector(packetBytes)"
820	32525 22 87 87 0.00000576 0.00000576 1 64 64 64 4096
vector 178  Substation.iSubstationTopology.feederBay[0].switch.eth[3]  rxPkOk:vector(packetBytes)  ETV
attr interpolationmode none
attr source rxPkOk
attr title "packets received OK, vector(packetBytes)"
178	30679 22 88 88 0.00000576 0.00000576 1 64 64 64 4096
vector 179  Substation.iSubstationTopology.feederBay[0].switch.eth[3]  passedUpPk:vector(packetBytes)  ETV
attr interpolationmode none
attr source packetSentToUpper
attr title "packets passed to higher layer, vector(packetBytes)"
179	30701 22 88 88 0.00000576 0.00000576 1 64 64 64 4096
vector 810  Substation.iSubstationTopology.transformerBay[1].switch.eth[4]  rxPkOk:vector(packetBytes)  ETV
attr interpolationmode none
attr source rxPkOk
attr title "packets received OK, vector(packetBytes)"
810	32468 22 89 89 0.00000576 0.00000576 1 64 64 64 4096
vector 811  Substation.iSubstationTopology.transformerBay[1].switch.eth[4]  passedUpPk:vector(packetBytes)  ETV
attr interpolationmode none
attr source packetSentToUpper
attr title "packets passed to higher layer, vector(packetBytes)"
811	32490 22 89 89 0.00000576 0.00000576 1 64 64 64 4096
vector 71  Substation.iSubstationTopology.feederBay[0].control[0].mac  rxPkOk:vector(packetBytes)  ETV
attr interpolationmode none
attr source rxPkOk
attr title "packets received OK, vector(packetBytes)"
71	30423 21 90 90 0.00000576 0.00000576 1 64 64 64 4096
vector 72  Substation.iSubstationTopology.feederBay[0].control[0].mac  passedUpPk:vector(packetBytes)  ETV
attr interpolationmode none
attr source packetSentToUpper
attr title "packets passed to higher layer, vector(packetBytes)"
72	30444 21 90 90 0.00000576 0.00000576 1 64 64 64 4096
vector 108  Substation.iSubstationTopology.feederBay[0].control[1].mac  rxPkOk:vector(packetBytes)  ETV
attr interpolationmode none
attr source rxPkOk
attr title "packets received OK, vector(packetBytes)"
108	30486 22 91 91 0.00000576 0.00000576 1 64 64 64 4096
vector 109  Substation.iSubstationTopology.feederBay[0].control[1].mac  passedUpPk:vector(packetBytes)  ETV
attr interpolationmode none
attr source packetSentToUpper
attr title "packets passed to higher layer, vector(packetBytes)"
109	30508 22 91 91 0.00000576 0.00000576 1 64 64 64 4096
vector 34  Substation.iSubstationTopology.feederBay[0].breaker[0].mac  rxPkOk:vector(packetBytes)  ETV
attr interpolationmode none
attr source rxPkOk
attr title "packets received OK, vector(packetBytes)"
34	30361 21 92 92 0.00000576 0.00000576 1 64 64 64 4096
vector 35  Substation.iSubstationTopology.feederBay[0].breaker[0].mac  passedUpPk:vector(packetBytes)  ETV
attr interpolationmode none
attr source packetSentToUpper
attr title "packets passed to higher layer, vector(packetBytes)"
35	30382 21 92 92 0.00000576 0.00000576 1 64 64 64 4096
vector 1  Substation.iSubstationTopology.switch.eth[0]  rxPkOk:vector(packetBytes)  ETV
attr interpolationmode none
attr source rxPkOk
attr title "packets received OK, vector(packetBytes)"
1	30203 20 93 93 0.00000576 0.00000576 1 64 64 64 4096
vector 2  Substation.iSubstationTopology.switch.eth[0]  passedUpPk:vector(packetBytes)  ETV
attr interpolationmode none
attr source packetSentToUpper
attr title "packets passed to higher layer, vector(packetBytes)"
2	30223 20 93 93 0.00000576 0.00000576 1 64 64 64 4096
vector 385  Substation.iSubstationTopology.feederBay[1].switch.eth[3]  rxPkOk:vector(packetBytes)  ETV
attr interpolationmode none
attr source rxPkOk
attr title "packets received OK, vector(packetBytes)"
385	31241 22 94 94 0.00000576 0.00000576 1 64 64 64 4096
vector 386  Substation.iSubstationTopology.feederBay[1].switch.eth[3]  passedUpPk:vector(packetBytes)  ETV
attr interpolationmode none
attr source packetSentToUpper
attr title "packets passed to higher layer, vector(packetBytes)"
386	31263 22 94 94 0.00000576 0.00000576 1 64 64 64 4096
vector 211  Substation.iSubstationTopology.feederBay[0].mu.mac  rxPkOk:vector(packetBytes)  ETV
attr interpolationmode none
attr source rxPkOk
attr title "packets received OK, vector(packetBytes)"
211	30850 22 95 95 0.00000576 0.00000576 1 64 64 64 4096
vector 212  Substation.iSubstationTopology.feederBay[0].mu.mac  passedUpPk:vector(packetBytes)  ETV
attr interpolationmode none
attr source packetSentToUpper
attr title "packets passed to higher layer, vector(packetBytes)"
212	30872 22 95 95 0.00000576 0.00000576 1 64 64 64 4096
vector 278  Substation.iSubstationTopology.feederBay[1].control[0].mac  rxPkOk:vector(packetBytes)  ETV
attr interpolationmode none
attr source rxPkOk
attr title "packets received OK, vector(packetBytes)"
278	30982 22 96 96 0.00000576 0.00000576 1 64 64 64 4096
vector 279  Substation.iSubstationTopology.feederBay[1].control[0].mac  passedUpPk:vector(packetBytes)  ETV
attr interpolationmode none
attr source packetSentToUpper
attr title "packets passed to higher layer, vector(packetBytes)"
279	31004 22 96 96 0.00000576 0.00000576 1 64 64 64 4096
vector 315  Substation.iSubstationTopology.feederBay[1].control[1].mac  rxPkOk:vector(packetBytes)  ETV
attr interpolationmode none
attr source rxPkOk
attr title "packets received OK, vector(packetBytes)"
315	31048 22 97 97 0.00000576 0.00000576 1 64 64 64 4096
vector 316  Substation.iSubstationTopology.feederBay[1].control[1].mac  passedUpPk:vector(packetBytes)  ETV
attr interpolationmode none
attr source packetSentToUpper
attr title "packets passed to higher layer, vector(packetBytes)"
316	31070 22 97 97 0.00000576 0.00000576 1 64 64 64 4096
vector 241  Substation.iSubstationTopology.feederBay[1].breaker[0].mac  rxPkOk:vector(packetBytes)  ETV
attr interpolationmode none
attr source rxPkOk
attr title "packets received OK, vector(packetBytes)"
241	30916 22 98 98 0.00000576 0.00000576 1 64 64 64 4096
vector 242  Substation.iSubstationTopology.feederBay[1].breaker[0].mac  passedUpPk:vector(packetBytes)  ETV
attr interpolationmode none
attr source packetSentToUpper
attr title "packets passed to higher layer, vector(packetBytes)"
242	30938 22 98 98 0.00000576 0.00000576 1 64 64 64 4096
vector 189  Substation.iSubstationTopology.feederBay[0].switch.eth[4]  rxPkOk:vector(packetBytes)  ETV
attr interpolationmode none
attr source rxPkOk
attr title "packets received OK, vector(packetBytes)"
189	30758 22 99 99 0.00000576 0.00000576 1 64 64 64 4096
vector 190  Substation.iSubstationTopology.feederBay[0].switch.eth[4]  passedUpPk:vector(packetBytes)  ETV
attr interpolationmode none
attr source packetSentToUpper
attr title "packets passed to higher layer, vector(packetBytes)"
190	30780 22 99 99 0.00000576 0.00000576 1 64 64 64 4096
vector 592  Substation.iSubstationTopology.transformerBay[0].switch.eth[3]  rxPkOk:vector(packetBytes)  ETV
attr interpolationmode none
attr source rxPkOk
attr title "packets received OK, vector(packetBytes)"
592	31813 23 100 100 0.00000576 0.00000576 1 64 64 64 4096
vector 593  Substation.iSubstationTopology.transformerBay[0].switch.eth[3]  passedUpPk:vector(packetBytes)  ETV
attr interpolationmode none
attr source packetSentToUpper
attr title "packets passed to higher layer, vector(packetBytes)"
593	31836 23 100 100 0.00000576 0.00000576 1 64 64 64 4096
vector 418  Substation.iSubstationTopology.feederBay[1].mu.mac  rxPkOk:vector(packetBytes)  ETV
attr interpolationmode none
attr source rxPkOk
attr title "packets received OK, vector(packetBytes)"
418	31414 23 101 101 0.00000576 0.00000576 1 64 64 64 4096
vector 419  Substation.iSubstationTopology.feederBay[1].mu.mac  passedUpPk:vector(packetBytes)  ETV
attr interpolationmode none
attr source packetSentToUpper
attr title "packets passed to higher layer, vector(packetBytes)"
419	31437 23 101 101 0.00000576 0.00000576 1 64 64 64 4096