version 2
run General-0-20130829-18:05:22-13977
attr configname General
attr datetime 20130829-18:05:22
attr experiment General
attr inifile omnetpp.ini
attr iterationvars ""
attr iterationvars2 $repetition=0
attr measurement ""
attr network Star
attr processid 13977
attr repetition 0
attr replication #0
attr resultdir results
attr runnumber 0
attr seedset 0

vector 28  Star.ied.queue.pauseQueue  queueLength:vector  ETV
attr interpolationmode  sample-hold
attr title  "queue length, vector"
vector 32  Star.ied.queue.dataQueue  queueLength:vector  ETV
attr interpolationmode  sample-hold
attr title  "queue length, vector"
vector 65  Star.ied1.queue.pauseQueue  queueLength:vector  ETV
attr interpolationmode  sample-hold
attr title  "queue length, vector"
vector 69  Star.ied1.queue.dataQueue  queueLength:vector  ETV
attr interpolationmode  sample-hold
attr title  "queue length, vector"
vector 102  Star.ied2.queue.pauseQueue  queueLength:vector  ETV
attr interpolationmode  sample-hold
attr title  "queue length, vector"
vector 106  Star.ied2.queue.dataQueue  queueLength:vector  ETV
attr interpolationmode  sample-hold
attr title  "queue length, vector"
vector 139  Star.ied3.queue.pauseQueue  queueLength:vector  ETV
attr interpolationmode  sample-hold
attr title  "queue length, vector"
vector 143  Star.ied3.queue.dataQueue  queueLength:vector  ETV
attr interpolationmode  sample-hold
attr title  "queue length, vector"
vector 153  Star.switch.eth[0]  rxPkFromHL:vector(packetBytes)  ETV
attr interpolationmode  none
attr source  rxPkFromHL
attr title  "packet bytes from higher layer, vector(packetBytes)"
vector 164  Star.switch.eth[1]  rxPkFromHL:vector(packetBytes)  ETV
attr interpolationmode  none
attr source  rxPkFromHL
attr title  "packet bytes from higher layer, vector(packetBytes)"
vector 175  Star.switch.eth[2]  rxPkFromHL:vector(packetBytes)  ETV
attr interpolationmode  none
attr source  rxPkFromHL
attr title  "packet bytes from higher layer, vector(packetBytes)"
vector 186  Star.switch1.eth[0]  rxPkFromHL:vector(packetBytes)  ETV
attr interpolationmode  none
attr source  rxPkFromHL
attr title  "packet bytes from higher layer, vector(packetBytes)"
vector 197  Star.switch1.eth[1]  rxPkFromHL:vector(packetBytes)  ETV
attr interpolationmode  none
attr source  rxPkFromHL
attr title  "packet bytes from higher layer, vector(packetBytes)"
vector 208  Star.switch1.eth[2]  rxPkFromHL:vector(packetBytes)  ETV
attr interpolationmode  none
attr source  rxPkFromHL
attr title  "packet bytes from higher layer, vector(packetBytes)"
vector 219  Star.switch2.eth[0]  rxPkFromHL:vector(packetBytes)  ETV
attr interpolationmode  none
attr source  rxPkFromHL
attr title  "packet bytes from higher layer, vector(packetBytes)"
vector 230  Star.switch2.eth[1]  rxPkFromHL:vector(packetBytes)  ETV
attr interpolationmode  none
attr source  rxPkFromHL
attr title  "packet bytes from higher layer, vector(packetBytes)"
vector 241  Star.switch2.eth[2]  rxPkFromHL:vector(packetBytes)  ETV
attr interpolationmode  none
attr source  rxPkFromHL
attr title  "packet bytes from higher layer, vector(packetBytes)"
vector 148  Star.switch.eth[0]  txPk:vector(packetBytes)  ETV
attr interpolationmode  none
attr source  txPk
attr title  "packets transmitted, vector(packetBytes)"
vector 159  Star.switch.eth[1]  txPk:vector(packetBytes)  ETV
attr interpolationmode  none
attr source  txPk
attr title  "packets transmitted, vector(packetBytes)"
vector 252  Star.server.eth[0].mac  rxPkOk:vector(packetBytes)  ETV
attr interpolationmode  none
attr source  rxPkOk
attr title  "packets received OK, vector(packetBytes)"
vector 253  Star.server.eth[0].mac  passedUpPk:vector(packetBytes)  ETV
attr interpolationmode  none
attr source  packetSentToUpper
attr title  "packets passed to higher layer, vector(packetBytes)"
vector 170  Star.switch.eth[2]  txPk:vector(packetBytes)  ETV
attr interpolationmode  none
attr source  txPk
attr title  "packets transmitted, vector(packetBytes)"
vector 181  Star.switch1.eth[0]  txPk:vector(packetBytes)  ETV
attr interpolationmode  none
attr source  txPk
attr title  "packets transmitted, vector(packetBytes)"
vector 192  Star.switch1.eth[1]  txPk:vector(packetBytes)  ETV
attr interpolationmode  none
attr source  txPk
attr title  "packets transmitted, vector(packetBytes)"
vector 203  Star.switch1.eth[2]  txPk:vector(packetBytes)  ETV
attr interpolationmode  none
attr source  txPk
attr title  "packets transmitted, vector(packetBytes)"
vector 214  Star.switch2.eth[0]  txPk:vector(packetBytes)  ETV
attr interpolationmode  none
attr source  txPk
attr title  "packets transmitted, vector(packetBytes)"
vector 225  Star.switch2.eth[1]  txPk:vector(packetBytes)  ETV
attr interpolationmode  none
attr source  txPk
attr title  "packets transmitted, vector(packetBytes)"
vector 236  Star.switch2.eth[2]  txPk:vector(packetBytes)  ETV
attr interpolationmode  none
attr source  txPk
attr title  "packets transmitted, vector(packetBytes)"
vector 182  Star.switch1.eth[0]  rxPkOk:vector(packetBytes)  ETV
attr interpolationmode  none
attr source  rxPkOk
attr title  "packets received OK, vector(packetBytes)"
vector 183  Star.switch1.eth[0]  passedUpPk:vector(packetBytes)  ETV
attr interpolationmode  none
attr source  packetSentToUpper
attr title  "packets passed to higher layer, vector(packetBytes)"
vector 215  Star.switch2.eth[0]  rxPkOk:vector(packetBytes)  ETV
attr interpolationmode  none
attr source  rxPkOk
attr title  "packets received OK, vector(packetBytes)"
vector 216  Star.switch2.eth[0]  passedUpPk:vector(packetBytes)  ETV
attr interpolationmode  none
attr source  packetSentToUpper
attr title  "packets passed to higher layer, vector(packetBytes)"
vector 149  Star.switch.eth[0]  rxPkOk:vector(packetBytes)  ETV
attr interpolationmode  none
attr source  rxPkOk
attr title  "packets received OK, vector(packetBytes)"
vector 150  Star.switch.eth[0]  passedUpPk:vector(packetBytes)  ETV
attr interpolationmode  none
attr source  packetSentToUpper
attr title  "packets passed to higher layer, vector(packetBytes)"
vector 1  Star.ied.mac  rxPkOk:vector(packetBytes)  ETV
attr interpolationmode  none
attr source  rxPkOk
attr title  "packets received OK, vector(packetBytes)"
vector 2  Star.ied.mac  passedUpPk:vector(packetBytes)  ETV
attr interpolationmode  none
attr source  packetSentToUpper
attr title  "packets passed to higher layer, vector(packetBytes)"
vector 38  Star.ied1.mac  rxPkOk:vector(packetBytes)  ETV
attr interpolationmode  none
attr source  rxPkOk
attr title  "packets received OK, vector(packetBytes)"
vector 39  Star.ied1.mac  passedUpPk:vector(packetBytes)  ETV
attr interpolationmode  none
attr source  packetSentToUpper
attr title  "packets passed to higher layer, vector(packetBytes)"
vector 160  Star.switch.eth[1]  rxPkOk:vector(packetBytes)  ETV
attr interpolationmode  none
attr source  rxPkOk
attr title  "packets received OK, vector(packetBytes)"
vector 161  Star.switch.eth[1]  passedUpPk:vector(packetBytes)  ETV
attr interpolationmode  none
attr source  packetSentToUpper
attr title  "packets passed to higher layer, vector(packetBytes)"
vector 112  Star.ied3.mac  rxPkOk:vector(packetBytes)  ETV
attr interpolationmode  none
attr source  rxPkOk
attr title  "packets received OK, vector(packetBytes)"
vector 113  Star.ied3.mac  passedUpPk:vector(packetBytes)  ETV
attr interpolationmode  none
attr source  packetSentToUpper
attr title  "packets passed to higher layer, vector(packetBytes)"
vector 75  Star.ied2.mac  rxPkOk:vector(packetBytes)  ETV
attr interpolationmode  none
attr source  rxPkOk
attr title  "packets received OK, vector(packetBytes)"
vector 76  Star.ied2.mac  passedUpPk:vector(packetBytes)  ETV
attr interpolationmode  none
attr source  packetSentToUpper
attr title  "packets passed to higher layer, vector(packetBytes)"
vector 15  Star.ied.iec61850trafgen  sentPk:vector(packetBytes)  ETV
attr interpolationmode  none
attr source  sentPk
attr title  "packets sent, vector(packetBytes)"
vector 21  Star.ied.mms  numActiveSessions:vector  ETV
attr interpolationmode  sample-hold
attr source  sum(connect)
attr title  "number of active sessions, vector"
vector 58  Star.ied1.mms  numActiveSessions:vector  ETV
attr interpolationmode  sample-hold
attr source  sum(connect)
attr title  "number of active sessions, vector"
vector 95  Star.ied2.mms  numActiveSessions:vector  ETV
attr interpolationmode  sample-hold
attr source  sum(connect)
attr title  "number of active sessions, vector"
vector 132  Star.ied3.mms  numActiveSessions:vector  ETV
attr interpolationmode  sample-hold
attr source  sum(connect)
attr title  "number of active sessions, vector"
vector 281  Star.ied.tcp  tcpRcvQueueBytes  ETV
vector 268  Star.ied.tcp  "advertised window"  ETV
vector 267  Star.ied.tcp  "receive window"  ETV
vector 270  Star.ied.tcp  "sent ack"  ETV
vector 305  Star.ied1.tcp  tcpRcvQueueBytes  ETV
vector 292  Star.ied1.tcp  "advertised window"  ETV
vector 291  Star.ied1.tcp  "receive window"  ETV
vector 294  Star.ied1.tcp  "sent ack"  ETV
vector 329  Star.ied2.tcp  tcpRcvQueueBytes  ETV
vector 316  Star.ied2.tcp  "advertised window"  ETV
vector 315  Star.ied2.tcp  "receive window"  ETV
vector 318  Star.ied2.tcp  "sent ack"  ETV
vector 353  Star.ied3.tcp  tcpRcvQueueBytes  ETV
vector 340  Star.ied3.tcp  "advertised window"  ETV
vector 339  Star.ied3.tcp  "receive window"  ETV
vector 342  Star.ied3.tcp  "sent ack"  ETV
vector 11  Star.ied.encap  encapPk:vector(packetBytes)  ETV
attr interpolationmode  none
attr source  encapPk
attr title  "packets encapsulated, vector(packetBytes)"
vector 33  Star.ied.networkLayer.arp  sentReq:vector  ETV
attr title  "ARP request sent, vector"
vector 35  Star.ied.networkLayer.arp  initiatedResolution:vector  ETV
attr title  "ARP initiated resolutions, vector"
vector 70  Star.ied1.networkLayer.arp  sentReq:vector  ETV
attr title  "ARP request sent, vector"
vector 72  Star.ied1.networkLayer.arp  initiatedResolution:vector  ETV
attr title  "ARP initiated resolutions, vector"
vector 107  Star.ied2.networkLayer.arp  sentReq:vector  ETV
attr title  "ARP request sent, vector"
vector 109  Star.ied2.networkLayer.arp  initiatedResolution:vector  ETV
attr title  "ARP initiated resolutions, vector"
vector 144  Star.ied3.networkLayer.arp  sentReq:vector  ETV
attr title  "ARP request sent, vector"
vector 146  Star.ied3.networkLayer.arp  initiatedResolution:vector  ETV
attr title  "ARP initiated resolutions, vector"
vector 29  Star.ied.queue.dataQueue  rcvdPk:vector(packetBytes)  ETV
attr interpolationmode  none
attr title  "received packets, vector(packetBytes)"
vector 31  Star.ied.queue.dataQueue  queueingTime:vector  ETV
attr interpolationmode  none
attr title  "queueing time, vector"
vector 48  Star.ied1.encap  encapPk:vector(packetBytes)  ETV
attr interpolationmode  none
attr source  encapPk
attr title  "packets encapsulated, vector(packetBytes)"
vector 85  Star.ied2.encap  encapPk:vector(packetBytes)  ETV
attr interpolationmode  none
attr source  encapPk
attr title  "packets encapsulated, vector(packetBytes)"
vector 122  Star.ied3.encap  encapPk:vector(packetBytes)  ETV
attr interpolationmode  none
attr source  encapPk
attr title  "packets encapsulated, vector(packetBytes)"
vector 5  Star.ied.mac  rxPkFromHL:vector(packetBytes)  ETV
attr interpolationmode  none
attr source  rxPkFromHL
attr title  "packet bytes from higher layer, vector(packetBytes)"
vector 66  Star.ied1.queue.dataQueue  rcvdPk:vector(packetBytes)  ETV
attr interpolationmode  none
attr title  "received packets, vector(packetBytes)"
vector 68  Star.ied1.queue.dataQueue  queueingTime:vector  ETV
attr interpolationmode  none
attr title  "queueing time, vector"
vector 103  Star.ied2.queue.dataQueue  rcvdPk:vector(packetBytes)  ETV
attr interpolationmode  none
attr title  "received packets, vector(packetBytes)"
vector 105  Star.ied2.queue.dataQueue  queueingTime:vector  ETV
attr interpolationmode  none
attr title  "queueing time, vector"
vector 140  Star.ied3.queue.dataQueue  rcvdPk:vector(packetBytes)  ETV
attr interpolationmode  none
attr title  "received packets, vector(packetBytes)"
vector 142  Star.ied3.queue.dataQueue  queueingTime:vector  ETV
attr interpolationmode  none
attr title  "queueing time, vector"
vector 42  Star.ied1.mac  rxPkFromHL:vector(packetBytes)  ETV
attr interpolationmode  none
attr source  rxPkFromHL
attr title  "packet bytes from higher layer, vector(packetBytes)"
vector 79  Star.ied2.mac  rxPkFromHL:vector(packetBytes)  ETV
attr interpolationmode  none
attr source  rxPkFromHL
attr title  "packet bytes from higher layer, vector(packetBytes)"
vector 116  Star.ied3.mac  rxPkFromHL:vector(packetBytes)  ETV
attr interpolationmode  none
attr source  rxPkFromHL
attr title  "packet bytes from higher layer, vector(packetBytes)"
vector 37  Star.ied1.mac  txPk:vector(packetBytes)  ETV
attr interpolationmode  none
attr source  txPk
attr title  "packets transmitted, vector(packetBytes)"
vector 74  Star.ied2.mac  txPk:vector(packetBytes)  ETV
attr interpolationmode  none
attr source  txPk
attr title  "packets transmitted, vector(packetBytes)"
vector 111  Star.ied3.mac  txPk:vector(packetBytes)  ETV
attr interpolationmode  none
attr source  txPk
attr title  "packets transmitted, vector(packetBytes)"
vector 204  Star.switch1.eth[2]  rxPkOk:vector(packetBytes)  ETV
attr interpolationmode  none
attr source  rxPkOk
attr title  "packets received OK, vector(packetBytes)"
vector 205  Star.switch1.eth[2]  passedUpPk:vector(packetBytes)  ETV
attr interpolationmode  none
attr source  packetSentToUpper
attr title  "packets passed to higher layer, vector(packetBytes)"
vector 237  Star.switch2.eth[2]  rxPkOk:vector(packetBytes)  ETV
attr interpolationmode  none
attr source  rxPkOk
attr title  "packets received OK, vector(packetBytes)"
vector 238  Star.switch2.eth[2]  passedUpPk:vector(packetBytes)  ETV
attr interpolationmode  none
attr source  packetSentToUpper
attr title  "packets passed to higher layer, vector(packetBytes)"
vector 226  Star.switch2.eth[1]  rxPkOk:vector(packetBytes)  ETV
attr interpolationmode  none
attr source  rxPkOk
attr title  "packets received OK, vector(packetBytes)"
vector 227  Star.switch2.eth[1]  passedUpPk:vector(packetBytes)  ETV
attr interpolationmode  none
attr source  packetSentToUpper
attr title  "packets passed to higher layer, vector(packetBytes)"
vector 0  Star.ied.mac  txPk:vector(packetBytes)  ETV
attr interpolationmode  none
attr source  txPk
attr title  "packets transmitted, vector(packetBytes)"
vector 193  Star.switch1.eth[1]  rxPkOk:vector(packetBytes)  ETV
attr interpolationmode  none
attr source  rxPkOk
attr title  "packets received OK, vector(packetBytes)"
vector 194  Star.switch1.eth[1]  passedUpPk:vector(packetBytes)  ETV
attr interpolationmode  none
attr source  packetSentToUpper
attr title  "packets passed to higher layer, vector(packetBytes)"
vector 264  Star.switch1.relay  "buffer level"  ETV
vector 265  Star.switch2.relay  "buffer level"  ETV
vector 12  Star.ied.encap  decapPk:vector(packetBytes)  ETV
attr interpolationmode  none
attr source  decapPk
attr title  "packets decapsulated, vector(packetBytes)"
vector 86  Star.ied2.encap  decapPk:vector(packetBytes)  ETV
attr interpolationmode  none
attr source  decapPk
attr title  "packets decapsulated, vector(packetBytes)"
vector 123  Star.ied3.encap  decapPk:vector(packetBytes)  ETV
attr interpolationmode  none
attr source  decapPk
attr title  "packets decapsulated, vector(packetBytes)"
vector 263  Star.switch.relay  "buffer level"  ETV
vector 49  Star.ied1.encap  decapPk:vector(packetBytes)  ETV
attr interpolationmode  none
attr source  decapPk
attr title  "packets decapsulated, vector(packetBytes)"
vector 261  Star.server.eth[0].encap  decapPk:vector(packetBytes)  ETV
attr interpolationmode  none
attr source  decapPk
attr title  "packets decapsulated, vector(packetBytes)"
vector 260  Star.server.eth[0].encap  encapPk:vector(packetBytes)  ETV
attr interpolationmode  none
attr source  encapPk
attr title  "packets encapsulated, vector(packetBytes)"
vector 256  Star.server.eth[0].mac  rxPkFromHL:vector(packetBytes)  ETV
attr interpolationmode  none
attr source  rxPkFromHL
attr title  "packet bytes from higher layer, vector(packetBytes)"
vector 251  Star.server.eth[0].mac  txPk:vector(packetBytes)  ETV
attr interpolationmode  none
attr source  txPk
attr title  "packets transmitted, vector(packetBytes)"
vector 171  Star.switch.eth[2]  rxPkOk:vector(packetBytes)  ETV
attr interpolationmode  none
attr source  rxPkOk
attr title  "packets received OK, vector(packetBytes)"
vector 172  Star.switch.eth[2]  passedUpPk:vector(packetBytes)  ETV
attr interpolationmode  none
attr source  packetSentToUpper
attr title  "packets passed to higher layer, vector(packetBytes)"
0	191	1.00001008	118
0	200	1.000016799999	64
0	303	2.00001008	118
0	344	2.000016799999	64
0	435	3.00001008	118
0	481	3.000016799999	64
0	820	3.000061439996	64
0	1100	4.00001008	118
0	1121	4.000016799999	64
0	1323	5.00001008	118
0	1360	6.00001008	118
0	1388	7.00001008	118
0	1423	8.00001008	118
0	1451	9.00001008	118
0	1547	10.00001008	118
0	1568	10.000016799999	64
0	1756	11.00001008	118
0	1791	12.00001008	118
0	1819	13.00001008	118
0	1854	14.00001008	118
0	1882	15.00001008	118
0	1917	16.00001008	118
0	1945	17.00001008	118
0	1980	18.00001008	118
0	2008	19.00001008	118
0	2043	20.00001008	118
0	2071	21.00001008	118
0	2167	22.00001008	118
0	2188	22.000016799999	64
0	2376	23.00001008	118
0	2411	24.00001008	118
0	2439	25.00001008	118
0	2474	26.00001008	118
0	2502	27.00001008	118
0	2537	28.00001008	118
0	2565	29.00001008	118
0	2600	30.00001008	118
0	2628	31.00001008	118
0	2663	32.00001008	118
0	2691	33.00001008	118
0	2726	34.00001008	118
0	2754	35.00001008	118
0	2789	36.00001008	118
0	2817	37.00001008	118
0	2852	38.00001008	118
0	2880	39.00001008	118
0	2915	40.00001008	118
0	2943	41.00001008	118
0	2978	42.00001008	118
0	3006	43.00001008	118
0	3041	44.00001008	118
0	3069	45.00001008	118
0	3165	46.00001008	118
0	3186	46.000016799999	64
0	3374	47.00001008	118
0	3409	48.00001008	118
0	3437	49.00001008	118
0	3472	50.00001008	118
0	3500	51.00001008	118
0	3535	52.00001008	118
0	3563	53.00001008	118
0	3598	54.00001008	118
0	3626	55.00001008	118
0	3661	56.00001008	118
0	3689	57.00001008	118
0	3724	58.00001008	118
0	3752	59.00001008	118
1	34	0.00000576	64
1	154	1.00000576	64
1	312	2.00001152	64
1	448	3.00001152	64
1	573	3.000030719998	64
1	646	3.000037439997	64
1	779	3.000054719997	64
1	982	3.000097119993	74
1	1271	4.000059679996	74
1	1718	10.000059679996	74
1	2338	22.000059679996	74
1	3336	46.000059679996	74
2	34	0.00000576	64
2	154	1.00000576	64
2	312	2.00001152	64
2	448	3.00001152	64
2	573	3.000030719998	64
2	646	3.000037439997	64
2	779	3.000054719997	64
2	982	3.000097119993	74
2	1271	4.000059679996	74
2	1718	10.000059679996	74
2	2338	22.000059679996	74
2	3336	46.000059679996	74
5	125	1	118
5	196	1.00001008	64
5	252	2	118
5	308	2.00001008	64
5	390	3	118
5	440	3.00001008	64
5	795	3.000054719997	64
5	1050	4	118
5	1105	4.00001008	64
5	1309	5	118
5	1342	6	118
5	1384	7	118
5	1405	8	118
5	1447	9	118
5	1499	10	118
5	1552	10.00001008	64
5	1752	11	118
5	1773	12	118
5	1815	13	118
5	1836	14	118
5	1878	15	118
5	1899	16	118
5	1941	17	118
5	1962	18	118
5	2004	19	118
5	2025	20	118
5	2067	21	118
5	2119	22	118
5	2172	22.00001008	64
5	2372	23	118
5	2393	24	118
5	2435	25	118
5	2456	26	118
5	2498	27	118
5	2519	28	118
5	2561	29	118
5	2582	30	118
5	2624	31	118
5	2645	32	118
5	2687	33	118
5	2708	34	118
5	2750	35	118
5	2771	36	118
5	2813	37	118
5	2834	38	118
5	2876	39	118
5	2897	40	118
5	2939	41	118
5	2960	42	118
5	3002	43	118
5	3023	44	118
5	3065	45	118
5	3117	46	118
5	3170	46.00001008	64
5	3370	47	118
5	3391	48	118
5	3433	49	118
5	3454	50	118
5	3496	51	118
5	3517	52	118
5	3559	53	118
5	3580	54	118
5	3622	55	118
5	3643	56	118
5	3685	57	118
5	3706	58	118
5	3748	59	118
5	3769	60	118
11	92	1	100
11	116	1	28
11	227	2	100
11	230	2	28
11	367	3	100
11	368	3	28
11	790	3.000054719997	44
11	1026	4	100
11	1032	4	44
11	1304	5	100
11	1337	6	100
11	1379	7	100
11	1400	8	100
11	1442	9	100
11	1475	10	100
11	1481	10	44
11	1747	11	100
11	1768	12	100
11	1810	13	100
11	1831	14	100
11	1873	15	100
11	1894	16	100
11	1936	17	100
11	1957	18	100
11	1999	19	100
11	2020	20	100
11	2062	21	100
11	2095	22	100
11	2101	22	44
11	2367	23	100
11	2388	24	100
11	2430	25	100
11	2451	26	100
11	2493	27	100
11	2514	28	100
11	2556	29	100
11	2577	30	100
11	2619	31	100
11	2640	32	100
11	2682	33	100
11	2703	34	100
11	2745	35	100
11	2766	36	100
11	2808	37	100
11	2829	38	100
11	2871	39	100
11	2892	40	100
11	2934	41	100
11	2955	42	100
11	2997	43	100
11	3018	44	100
11	3060	45	100
11	3093	46	100
11	3099	46	44
11	3365	47	100
11	3386	48	100
11	3428	49	100
11	3449	50	100
11	3491	51	100
11	3512	52	100
11	3554	53	100
11	3575	54	100
11	3617	55	100
11	3638	56	100
11	3680	57	100
11	3701	58	100
11	3743	59	100
11	3764	60	100
12	452	3.00001152	28
12	584	3.000030719998	28
12	657	3.000037439997	28
12	783	3.000054719997	28
12	984	3.000097119993	56
12	1273	4.000059679996	56
12	1720	10.000059679996	56
12	2340	22.000059679996	56
12	3338	46.000059679996	56
15	65	1	100
15	206	2	100
15	355	3	100
15	1012	4	100
15	1298	5	100
15	1331	6	100
15	1377	7	100
15	1394	8	100
15	1440	9	100
15	1461	10	100
15	1745	11	100
15	1762	12	100
15	1808	13	100
15	1825	14	100
15	1871	15	100
15	1888	16	100
15	1934	17	100
15	1951	18	100
15	1997	19	100
15	2014	20	100
15	2060	21	100
15	2081	22	100
15	2365	23	100
15	2382	24	100
15	2428	25	100
15	2445	26	100
15	2491	27	100
15	2508	28	100
15	2554	29	100
15	2571	30	100
15	2617	31	100
15	2634	32	100
15	2680	33	100
15	2697	34	100
15	2743	35	100
15	2760	36	100
15	2806	37	100
15	2823	38	100
15	2869	39	100
15	2886	40	100
15	2932	41	100
15	2949	42	100
15	2995	43	100
15	3012	44	100
15	3058	45	100
15	3079	46	100
15	3363	47	100
15	3380	48	100
15	3426	49	100
15	3443	50	100
15	3489	51	100
15	3506	52	100
15	3552	53	100
15	3569	54	100
15	3615	55	100
15	3632	56	100
15	3678	57	100
15	3695	58	100
15	3741	59	100
15	3758	60	100
21	66	1	1
28	0	0	0
29	110	1	118
29	126	1	64
29	239	2	118
29	240	2	64
29	377	3	118
29	378	3	64
29	792	3.000054719997	64
29	1036	4	118
29	1042	4	64
29	1306	5	118
29	1339	6	118
29	1381	7	118
29	1402	8	118
29	1444	9	118
29	1485	10	118
29	1491	10	64
29	1749	11	118
29	1770	12	118
29	1812	13	118
29	1833	14	118
29	1875	15	118
29	1896	16	118
29	1938	17	118
29	1959	18	118
29	2001	19	118
29	2022	20	118
29	2064	21	118
29	2105	22	118
29	2111	22	64
29	2369	23	118
29	2390	24	118
29	2432	25	118
29	2453	26	118
29	2495	27	118
29	2516	28	118
29	2558	29	118
29	2579	30	118
29	2621	31	118
29	2642	32	118
29	2684	33	118
29	2705	34	118
29	2747	35	118
29	2768	36	118
29	2810	37	118
29	2831	38	118
29	2873	39	118
29	2894	40	118
29	2936	41	118
29	2957	42	118
29	2999	43	118
29	3020	44	118
29	3062	45	118
29	3103	46	118
29	3109	46	64
29	3367	47	118
29	3388	48	118
29	3430	49	118
29	3451	50	118
29	3493	51	118
29	3514	52	118
29	3556	53	118
29	3577	54	118
29	3619	55	118
29	3640	56	118
29	3682	57	118
29	3703	58	118
29	3745	59	118
29	3766	60	118
31	110	1	0
31	191	1.00001008	1.008e-05
31	239	2	0
31	303	2.00001008	1.008e-05
31	377	3	0
31	435	3.00001008	1.008e-05
31	792	3.000054719997	0
31	1036	4	0
31	1100	4.00001008	1.008e-05
31	1306	5	0
31	1339	6	0
31	1381	7	0
31	1402	8	0
31	1444	9	0
31	1485	10	0
31	1547	10.00001008	1.008e-05
31	1749	11	0
31	1770	12	0
31	1812	13	0
31	1833	14	0
31	1875	15	0
31	1896	16	0
31	1938	17	0
31	1959	18	0
31	2001	19	0
31	2022	20	0
31	2064	21	0
31	2105	22	0
31	2167	22.00001008	1.008e-05
31	2369	23	0
31	2390	24	0
31	2432	25	0
31	2453	26	0
31	2495	27	0
31	2516	28	0
31	2558	29	0
31	2579	30	0
31	2621	31	0
31	2642	32	0
31	2684	33	0
31	2705	34	0
31	2747	35	0
31	2768	36	0
31	2810	37	0
31	2831	38	0
31	2873	39	0
31	2894	40	0
31	2936	41	0
31	2957	42	0
31	2999	43	0
31	3020	44	0
31	3062	45	0
31	3103	46	0
31	3165	46.00001008	1.008e-05
31	3367	47	0
31	3388	48	0
31	3430	49	0
31	3451	50	0
31	3493	51	0
31	3514	52	0
31	3556	53	0
31	3577	54	0
31	3619	55	0
31	3640	56	0
31	3682	57	0
31	3703	58	0
31	3745	59	0
31	3766	60	0
32	0	0	0
32	110	1	1
32	110	1	0
32	126	1	1
32	191	1.00001008	0
32	239	2	1
32	239	2	0
32	240	2	1
32	303	2.00001008	0
32	377	3	1
32	377	3	0
32	378	3	1
32	435	3.00001008	0
32	792	3.000054719997	1
32	792	3.000054719997	0
32	1036	4	1
32	1036	4	0
32	1042	4	1
32	1100	4.00001008	0
32	1306	5	1
32	1306	5	0
32	1339	6	1
32	1339	6	0
32	1381	7	1
32	1381	7	0
32	1402	8	1
32	1402	8	0
32	1444	9	1
32	1444	9	0
32	1485	10	1
32	1485	10	0
32	1491	10	1
32	1547	10.00001008	0
32	1749	11	1
32	1749	11	0
32	1770	12	1
32	1770	12	0
32	1812	13	1
32	1812	13	0
32	1833	14	1
32	1833	14	0
32	1875	15	1
32	1875	15	0
32	1896	16	1
32	1896	16	0
32	1938	17	1
32	1938	17	0
32	1959	18	1
32	1959	18	0
32	2001	19	1
32	2001	19	0
32	2022	20	1
32	2022	20	0
32	2064	21	1
32	2064	21	0
32	2105	22	1
32	2105	22	0
32	2111	22	1
32	2167	22.00001008	0
32	2369	23	1
32	2369	23	0
32	2390	24	1
32	2390	24	0
32	2432	25	1
32	2432	25	0
32	2453	26	1
32	2453	26	0
32	2495	27	1
32	2495	27	0
32	2516	28	1
32	2516	28	0
32	2558	29	1
32	2558	29	0
32	2579	30	1
32	2579	30	0
32	2621	31	1
32	2621	31	0
32	2642	32	1
32	2642	32	0
32	2684	33	1
32	2684	33	0
32	2705	34	1
32	2705	34	0
32	2747	35	1
32	2747	35	0
32	2768	36	1
32	2768	36	0
32	2810	37	1
32	2810	37	0
32	2831	38	1
32	2831	38	0
32	2873	39	1
32	2873	39	0
32	2894	40	1
32	2894	40	0
32	2936	41	1
32	2936	41	0
32	2957	42	1
32	2957	42	0
32	2999	43	1
32	2999	43	0
32	3020	44	1
32	3020	44	0
32	3062	45	1
32	3062	45	0
32	3103	46	1
32	3103	46	0
32	3109	46	1
32	3165	46.00001008	0
32	3367	47	1
32	3367	47	0
32	3388	48	1
32	3388	48	0
32	3430	49	1
32	3430	49	0
32	3451	50	1
32	3451	50	0
32	3493	51	1
32	3493	51	0
32	3514	52	1
32	3514	52	0
32	3556	53	1
32	3556	53	0
32	3577	54	1
32	3577	54	0
32	3619	55	1
32	3619	55	0
32	3640	56	1
32	3640	56	0
32	3682	57	1
32	3682	57	0
32	3703	58	1
32	3703	58	0
32	3745	59	1
32	3745	59	0
32	3766	60	1
32	3766	60	0
33	106	1	1
33	215	2	1
33	358	3	1
35	106	1	1
37	159	1.00000576	64
37	268	2.00000576	64
37	404	3.00000576	64
37	766	3.000050879995	64
37	1069	4.00000576	64
37	1516	10.00000576	64
37	2136	22.00000576	64
37	3134	46.00000576	64
38	35	0.00000576	64
38	155	1.00000576	64
38	322	2.000012479999	64
38	511	3.000022559999	64
38	574	3.000030719998	64
38	647	3.000037439997	64
38	711	3.000044159996	64
38	922	3.000082079995	74
38	1211	4.000044639998	74
38	1658	10.000044639998	74
38	2278	22.000044639998	74
38	3276	46.000044639998	74
39	35	0.00000576	64
39	155	1.00000576	64
39	322	2.000012479999	64
39	511	3.000022559999	64
39	574	3.000030719998	64
39	647	3.000037439997	64
39	711	3.000044159996	64
39	922	3.000082079995	74
39	1211	4.000044639998	74
39	1658	10.000044639998	74
39	2278	22.000044639998	74
39	3276	46.000044639998	74
42	137	1	64
42	253	2	64
42	391	3	64
42	730	3.000044159996	64
42	1055	4	64
42	1504	10	64
42	2124	22	64
42	3122	46	64
48	117	1	28
48	231	2	28
48	369	3	28
48	725	3.000044159996	44
48	1033	4	44
48	1482	10	44
48	2102	22	44
48	3100	46	44
49	513	3.000022559999	28
49	585	3.000030719998	28
49	658	3.000037439997	28
49	716	3.000044159996	28
49	924	3.000082079995	56
49	1213	4.000044639998	56
49	1660	10.000044639998	56
49	2280	22.000044639998	56
49	3278	46.000044639998	56
58	67	1	1
65	0	0	0
66	127	1	64
66	241	2	64
66	379	3	64
66	727	3.000044159996	64
66	1043	4	64
66	1492	10	64
66	2112	22	64
66	3110	46	64
68	127	1	0
68	241	2	0
68	379	3	0
68	727	3.000044159996	0
68	1043	4	0
68	1492	10	0
68	2112	22	0
68	3110	46	0
69	0	0	0
69	127	1	1
69	127	1	0
69	241	2	1
69	241	2	0
69	379	3	1
69	379	3	0
69	727	3.000044159996	1
69	727	3.000044159996	0
69	1043	4	1
69	1043	4	0
69	1492	10	1
69	1492	10	0
69	2112	22	1
69	2112	22	0
69	3110	46	1
69	3110	46	0
70	107	1	1
70	216	2	1
70	359	3	1
72	107	1	1
74	160	1.00000576	64
74	269	2.00000576	64
74	405	3.00000576	64
74	776	3.000054719997	64
74	1070	4.00000576	64
74	1517	10.00000576	64
74	2137	22.00000576	64
74	3135	46.00000576	64
75	38	0.00000576	64
75	158	1.00000576	64
75	323	2.000012479999	64
75	458	3.000012479999	64
75	576	3.000030719998	64
75	649	3.000037439997	64
75	736	3.000047999998	64
75	957	3.000089599994	74
75	1246	4.000052159997	74
75	1693	10.000052159997	74
75	2313	22.000052159997	74
75	3311	46.000052159997	74
76	38	0.00000576	64
76	158	1.00000576	64
76	323	2.000012479999	64
76	458	3.000012479999	64
76	576	3.000030719998	64
76	649	3.000037439997	64
76	736	3.000047999998	64
76	957	3.000089599994	74
76	1246	4.000052159997	74
76	1693	10.000052159997	74
76	2313	22.000052159997	74
76	3311	46.000052159997	74
79	138	1	64
79	254	2	64
79	392	3	64
79	748	3.000047999998	64
79	1056	4	64
79	1505	10	64
79	2125	22	64
79	3123	46	64
85	118	1	28
85	232	2	28
85	370	3	28
85	743	3.000047999998	44
85	1034	4	44
85	1483	10	44
85	2103	22	44
85	3101	46	44
86	469	3.000012479999	28
86	587	3.000030719998	28
86	660	3.000037439997	28
86	738	3.000047999998	28
86	959	3.000089599994	56
86	1248	4.000052159997	56
86	1695	10.000052159997	56
86	2315	22.000052159997	56
86	3313	46.000052159997	56
95	68	1	1
102	0	0	0
103	128	1	64
103	242	2	64
103	380	3	64
103	745	3.000047999998	64
103	1044	4	64
103	1493	10	64
103	2113	22	64
103	3111	46	64
105	128	1	0
105	242	2	0
105	380	3	0
105	745	3.000047999998	0
105	1044	4	0
105	1493	10	0
105	2113	22	0
105	3111	46	0
106	0	0	0
106	128	1	1
106	128	1	0
106	242	2	1
106	242	2	0
106	380	3	1
106	380	3	0
106	745	3.000047999998	1
106	745	3.000047999998	0
106	1044	4	1
106	1044	4	0
106	1493	10	1
106	1493	10	0
106	2113	22	1
106	2113	22	0
106	3111	46	1
106	3111	46	0
107	108	1	1
107	217	2	1
107	360	3	1
109	108	1	1
111	161	1.00000576	64
111	270	2.00000576	64
111	406	3.00000576	64
111	862	3.000068159995	64
111	1071	4.00000576	64
111	1518	10.00000576	64
111	2138	22.00000576	64
111	3136	46.00000576	64
112	37	0.00000576	64
112	157	1.00000576	64
112	324	2.000012479999	64
112	459	3.000012479999	64
112	575	3.000030719998	64
112	648	3.000037439997	64
112	823	3.000061439996	64
112	999	3.000104639992	74
112	1288	4.000067199995	74
112	1735	10.000067199995	74
112	2355	22.000067199995	74
112	3353	46.000067199995	74
113	37	0.00000576	64
113	157	1.00000576	64
113	324	2.000012479999	64